   2   2   0   0
  0.2560000E+03  0.8000000E-09  0.8000000E-09  0.8000000E-09  0.2000000E-16
  1.000000000000000E-004
  CAR 
 unknown system                          
      3.70188427    -31.28319347  301     -7.72566339      1.00000000
    -31.283  0.0000E+00  0.0000E+00
    -31.167  0.0000E+00  0.0000E+00
    -31.050  0.0000E+00  0.0000E+00
    -30.933  0.0000E+00  0.0000E+00
    -30.817  0.0000E+00  0.0000E+00
    -30.700  0.0000E+00  0.0000E+00
    -30.583  0.0000E+00  0.0000E+00
    -30.467  0.9520E-15  0.1110E-15
    -30.350  0.3856E-12  0.4508E-13
    -30.234  0.1547E-09  0.1809E-10
    -30.117  0.3177E-07  0.3723E-08
    -30.000  0.3353E-05  0.3948E-06
    -29.884  0.1825E-03  0.2168E-04
    -29.767  0.5140E-02  0.6210E-03
    -29.651  0.7516E-01  0.9386E-02
    -29.534  0.5731E+00  0.7622E-01
    -29.417  0.2287E+01  0.3429E+00
    -29.301  0.4790E+01  0.9014E+00
    -29.184  0.5275E+01  0.1517E+01
    -29.067  0.3055E+01  0.1873E+01
    -28.951  0.9295E+00  0.1981E+01
    -28.834  0.1481E+00  0.1998E+01
    -28.718  0.1232E-01  0.2000E+01
    -28.601  0.5329E-03  0.2000E+01
    -28.484  0.1194E-04  0.2000E+01
    -28.368  0.1380E-06  0.2000E+01
    -28.251  0.8212E-09  0.2000E+01
    -28.135  0.2508E-11  0.2000E+01
    -28.018  0.3808E-14  0.2000E+01
    -27.901  0.0000E+00  0.2000E+01
    -27.785  0.0000E+00  0.2000E+01
    -27.668  0.0000E+00  0.2000E+01
    -27.551  0.0000E+00  0.2000E+01
    -27.435  0.0000E+00  0.2000E+01
    -27.318  0.0000E+00  0.2000E+01
    -27.202  0.0000E+00  0.2000E+01
    -27.085  0.0000E+00  0.2000E+01
    -26.968  0.0000E+00  0.2000E+01
    -26.852  0.0000E+00  0.2000E+01
    -26.735  0.0000E+00  0.2000E+01
    -26.619  0.0000E+00  0.2000E+01
    -26.502  0.0000E+00  0.2000E+01
    -26.385  0.0000E+00  0.2000E+01
    -26.269  0.0000E+00  0.2000E+01
    -26.152  0.0000E+00  0.2000E+01
    -26.035  0.0000E+00  0.2000E+01
    -25.919  0.0000E+00  0.2000E+01
    -25.802  0.0000E+00  0.2000E+01
    -25.686  0.0000E+00  0.2000E+01
    -25.569  0.0000E+00  0.2000E+01
    -25.452  0.0000E+00  0.2000E+01
    -25.336  0.0000E+00  0.2000E+01
    -25.219  0.0000E+00  0.2000E+01
    -25.102  0.0000E+00  0.2000E+01
    -24.986  0.0000E+00  0.2000E+01
    -24.869  0.0000E+00  0.2000E+01
    -24.753  0.0000E+00  0.2000E+01
    -24.636  0.0000E+00  0.2000E+01
    -24.519  0.0000E+00  0.2000E+01
    -24.403  0.0000E+00  0.2000E+01
    -24.286  0.0000E+00  0.2000E+01
    -24.170  0.0000E+00  0.2000E+01
    -24.053  0.0000E+00  0.2000E+01
    -23.936  0.0000E+00  0.2000E+01
    -23.820  0.0000E+00  0.2000E+01
    -23.703  0.0000E+00  0.2000E+01
    -23.586  0.0000E+00  0.2000E+01
    -23.470  0.0000E+00  0.2000E+01
    -23.353  0.0000E+00  0.2000E+01
    -23.237  0.0000E+00  0.2000E+01
    -23.120  0.0000E+00  0.2000E+01
    -23.003  0.0000E+00  0.2000E+01
    -22.887  0.0000E+00  0.2000E+01
    -22.770  0.0000E+00  0.2000E+01
    -22.654  0.0000E+00  0.2000E+01
    -22.537  0.0000E+00  0.2000E+01
    -22.420  0.0000E+00  0.2000E+01
    -22.304  0.0000E+00  0.2000E+01
    -22.187  0.0000E+00  0.2000E+01
    -22.070  0.0000E+00  0.2000E+01
    -21.954  0.0000E+00  0.2000E+01
    -21.837  0.0000E+00  0.2000E+01
    -21.721  0.0000E+00  0.2000E+01
    -21.604  0.0000E+00  0.2000E+01
    -21.487  0.0000E+00  0.2000E+01
    -21.371  0.0000E+00  0.2000E+01
    -21.254  0.0000E+00  0.2000E+01
    -21.138  0.0000E+00  0.2000E+01
    -21.021  0.0000E+00  0.2000E+01
    -20.904  0.0000E+00  0.2000E+01
    -20.788  0.0000E+00  0.2000E+01
    -20.671  0.0000E+00  0.2000E+01
    -20.554  0.0000E+00  0.2000E+01
    -20.438  0.0000E+00  0.2000E+01
    -20.321  0.0000E+00  0.2000E+01
    -20.205  0.0000E+00  0.2000E+01
    -20.088  0.0000E+00  0.2000E+01
    -19.971  0.0000E+00  0.2000E+01
    -19.855  0.0000E+00  0.2000E+01
    -19.738  0.0000E+00  0.2000E+01
    -19.622  0.0000E+00  0.2000E+01
    -19.505  0.0000E+00  0.2000E+01
    -19.388  0.0000E+00  0.2000E+01
    -19.272  0.0000E+00  0.2000E+01
    -19.155  0.0000E+00  0.2000E+01
    -19.038  0.0000E+00  0.2000E+01
    -18.922  0.0000E+00  0.2000E+01
    -18.805  0.0000E+00  0.2000E+01
    -18.689  0.0000E+00  0.2000E+01
    -18.572  0.0000E+00  0.2000E+01
    -18.455  0.0000E+00  0.2000E+01
    -18.339  0.0000E+00  0.2000E+01
    -18.222  0.0000E+00  0.2000E+01
    -18.105  0.0000E+00  0.2000E+01
    -17.989  0.0000E+00  0.2000E+01
    -17.872  0.0000E+00  0.2000E+01
    -17.756  0.0000E+00  0.2000E+01
    -17.639  0.0000E+00  0.2000E+01
    -17.522  0.0000E+00  0.2000E+01
    -17.406  0.0000E+00  0.2000E+01
    -17.289  0.0000E+00  0.2000E+01
    -17.173  0.0000E+00  0.2000E+01
    -17.056  0.0000E+00  0.2000E+01
    -16.939  0.0000E+00  0.2000E+01
    -16.823  0.0000E+00  0.2000E+01
    -16.706  0.0000E+00  0.2000E+01
    -16.589  0.0000E+00  0.2000E+01
    -16.473  0.0000E+00  0.2000E+01
    -16.356  0.0000E+00  0.2000E+01
    -16.240  0.0000E+00  0.2000E+01
    -16.123  0.0000E+00  0.2000E+01
    -16.006  0.0000E+00  0.2000E+01
    -15.890  0.0000E+00  0.2000E+01
    -15.773  0.0000E+00  0.2000E+01
    -15.657  0.0000E+00  0.2000E+01
    -15.540  0.0000E+00  0.2000E+01
    -15.423  0.0000E+00  0.2000E+01
    -15.307  0.0000E+00  0.2000E+01
    -15.190  0.0000E+00  0.2000E+01
    -15.073  0.0000E+00  0.2000E+01
    -14.957  0.0000E+00  0.2000E+01
    -14.840  0.1019E-12  0.2000E+01
    -14.724  0.4697E-10  0.2000E+01
    -14.607  0.1108E-07  0.2000E+01
    -14.490  0.1343E-05  0.2000E+01
    -14.374  0.8387E-04  0.2000E+01
    -14.257  0.2708E-02  0.2000E+01
    -14.141  0.4538E-01  0.2006E+01
    -14.024  0.3961E+00  0.2052E+01
    -13.907  0.1808E+01  0.2263E+01
    -13.791  0.4330E+01  0.2768E+01
    -13.674  0.5451E+01  0.3403E+01
    -13.557  0.3609E+01  0.3824E+01
    -13.441  0.1256E+01  0.3971E+01
    -13.324  0.2290E+00  0.3997E+01
    -13.208  0.2182E-01  0.4000E+01
    -13.091  0.1082E-02  0.4000E+01
    -12.974  0.2780E-04  0.4000E+01
    -12.858  0.3689E-06  0.4000E+01
    -12.741  0.2521E-08  0.4000E+01
    -12.624  0.8071E-10  0.4000E+01
    -12.508  0.1748E-07  0.4000E+01
    -12.391  0.2185E-05  0.4000E+01
    -12.275  0.1407E-03  0.4000E+01
    -12.158  0.4683E-02  0.4001E+01
    -12.041  0.8086E-01  0.4010E+01
    -11.925  0.7273E+00  0.4095E+01
    -11.808  0.3420E+01  0.4494E+01
    -11.692  0.8437E+01  0.5478E+01
    -11.575  0.1094E+02  0.6753E+01
    -11.458  0.7461E+01  0.7623E+01
    -11.342  0.2674E+01  0.7935E+01
    -11.225  0.5025E+00  0.7994E+01
    -11.108  0.4933E-01  0.8000E+01
    -10.992  0.2520E-02  0.8000E+01
    -10.875  0.6676E-04  0.8000E+01
    -10.759  0.9136E-06  0.8000E+01
    -10.642  0.6437E-08  0.8000E+01
    -10.525  0.2329E-10  0.8000E+01
    -10.409  0.4570E-13  0.8000E+01
    -10.292  0.0000E+00  0.8000E+01
    -10.176  0.0000E+00  0.8000E+01
    -10.059  0.0000E+00  0.8000E+01
     -9.942  0.0000E+00  0.8000E+01
     -9.826  0.4760E-13  0.8000E+01
     -9.709  0.2356E-10  0.8000E+01
     -9.592  0.6013E-08  0.8000E+01
     -9.476  0.7884E-06  0.8000E+01
     -9.359  0.5325E-04  0.8000E+01
     -9.243  0.1858E-02  0.8000E+01
     -9.126  0.3365E-01  0.8004E+01
     -9.009  0.3172E+00  0.8041E+01
     -8.893  0.1563E+01  0.8223E+01
     -8.776  0.4039E+01  0.8694E+01
     -8.660  0.5485E+01  0.9334E+01
     -8.543  0.3919E+01  0.9791E+01
     -8.426  0.1471E+01  0.9963E+01
     -8.310  0.2897E+00  0.9996E+01
     -8.193  0.2980E-01  0.1000E+02
     -8.076  0.1597E-02  0.1000E+02
     -7.960  0.4435E-04  0.1000E+02
     -7.843  0.6366E-06  0.1000E+02
     -7.727  0.4706E-08  0.1000E+02
     -7.610  0.1787E-10  0.1000E+02
     -7.493  0.3427E-13  0.1000E+02
     -7.377  0.0000E+00  0.1000E+02
     -7.260  0.0000E+00  0.1000E+02
     -7.143  0.0000E+00  0.1000E+02
     -7.027  0.0000E+00  0.1000E+02
     -6.910  0.0000E+00  0.1000E+02
     -6.794  0.0000E+00  0.1000E+02
     -6.677  0.0000E+00  0.1000E+02
     -6.560  0.0000E+00  0.1000E+02
     -6.444  0.0000E+00  0.1000E+02
     -6.327  0.0000E+00  0.1000E+02
     -6.211  0.0000E+00  0.1000E+02
     -6.094  0.0000E+00  0.1000E+02
     -5.977  0.0000E+00  0.1000E+02
     -5.861  0.0000E+00  0.1000E+02
     -5.744  0.0000E+00  0.1000E+02
     -5.627  0.0000E+00  0.1000E+02
     -5.511  0.0000E+00  0.1000E+02
     -5.394  0.0000E+00  0.1000E+02
     -5.278  0.0000E+00  0.1000E+02
     -5.161  0.0000E+00  0.1000E+02
     -5.044  0.0000E+00  0.1000E+02
     -4.928  0.0000E+00  0.1000E+02
     -4.811  0.0000E+00  0.1000E+02
     -4.695  0.0000E+00  0.1000E+02
     -4.578  0.0000E+00  0.1000E+02
     -4.461  0.0000E+00  0.1000E+02
     -4.345  0.0000E+00  0.1000E+02
     -4.228  0.0000E+00  0.1000E+02
     -4.111  0.0000E+00  0.1000E+02
     -3.995  0.0000E+00  0.1000E+02
     -3.878  0.0000E+00  0.1000E+02
     -3.762  0.0000E+00  0.1000E+02
     -3.645  0.0000E+00  0.1000E+02
     -3.528  0.0000E+00  0.1000E+02
     -3.412  0.0000E+00  0.1000E+02
     -3.295  0.0000E+00  0.1000E+02
     -3.179  0.0000E+00  0.1000E+02
     -3.062  0.0000E+00  0.1000E+02
     -2.945  0.0000E+00  0.1000E+02
     -2.829  0.1904E-14  0.1000E+02
     -2.712  0.1691E-11  0.1000E+02
     -2.595  0.6226E-09  0.1000E+02
     -2.479  0.1177E-06  0.1000E+02
     -2.362  0.1143E-04  0.1000E+02
     -2.246  0.5732E-03  0.1000E+02
     -2.129  0.1488E-01  0.1000E+02
     -2.012  0.2006E+00  0.1003E+02
     -1.896  0.1411E+01  0.1019E+02
     -1.779  0.5194E+01  0.1080E+02
     -1.662  0.1004E+02  0.1197E+02
     -1.546  0.1021E+02  0.1316E+02
     -1.429  0.5457E+01  0.1379E+02
     -1.313  0.1532E+01  0.1397E+02
     -1.196  0.2252E+00  0.1400E+02
     -1.079  0.1727E-01  0.1400E+02
     -0.963  0.6939E-03  0.1400E+02
     -0.846  0.2838E-03  0.1400E+02
     -0.730  0.7075E-02  0.1400E+02
     -0.613  0.9645E-01  0.1401E+02
     -0.496  0.6859E+00  0.1409E+02
     -0.380  0.2553E+01  0.1439E+02
     -0.263  0.4991E+01  0.1497E+02
     -0.146  0.5130E+01  0.1557E+02
     -0.030  0.2773E+01  0.1589E+02
      0.087  0.7871E+00  0.1599E+02
      0.203  0.1170E+00  0.1600E+02
      0.320  0.9074E-02  0.1600E+02
      0.437  0.3657E-03  0.1600E+02
      0.553  0.7632E-05  0.1600E+02
      0.670  0.8218E-07  0.1600E+02
      0.786  0.1276E-08  0.1600E+02
      0.903  0.1380E-06  0.1600E+02
      1.020  0.1194E-04  0.1600E+02
      1.136  0.5329E-03  0.1600E+02
      1.253  0.1232E-01  0.1600E+02
      1.370  0.1481E+00  0.1602E+02
      1.486  0.9295E+00  0.1613E+02
      1.603  0.3055E+01  0.1648E+02
      1.719  0.5275E+01  0.1710E+02
      1.836  0.4790E+01  0.1766E+02
      1.953  0.2287E+01  0.1792E+02
      2.069  0.5731E+00  0.1799E+02
      2.186  0.7516E-01  0.1800E+02
      2.302  0.5140E-02  0.1800E+02
      2.419  0.1825E-03  0.1800E+02
      2.536  0.3353E-05  0.1800E+02
      2.652  0.3177E-07  0.1800E+02
      2.769  0.1547E-09  0.1800E+02
      2.886  0.3865E-12  0.1800E+02
      3.002  0.0000E+00  0.1800E+02
      3.119  0.0000E+00  0.1800E+02
      3.235  0.0000E+00  0.1800E+02
      3.352  0.0000E+00  0.1800E+02
      3.469  0.0000E+00  0.1800E+02
      3.585  0.0000E+00  0.1800E+02
      3.702  0.0000E+00  0.1800E+02
