    2    2    1    1
  0.2560000E+03  0.8000000E-09  0.8000000E-09  0.8000000E-09  0.2000000E-16
  1.000000000000000E-004
  CAR 
 unknown system                          
     10      1      9
 
  0.0000000E+00  0.0000000E+00  0.0000000E+00  0.1000000E+01
    1      -29.283193
    2      -13.748868
    3      -11.644392
    4      -11.644392
    5       -8.720553
    6       -1.659499
    7       -1.659499
    8       -0.258108
    9        1.701884
