       N       E                     dE             d eps       ncg     rms          rms(c)
DAV:   1     0.821968626932E+02    0.82197E+02   -0.23183E+03    18   0.509E+02
DAV:   2    -0.169037424186E+01   -0.83887E+02   -0.83450E+02    35   0.146E+02
DAV:   3    -0.155019366885E+02   -0.13812E+02   -0.13809E+02    34   0.760E+01
DAV:   4    -0.155989258311E+02   -0.96989E-01   -0.96986E-01    20   0.720E+00
DAV:   5    -0.155995094201E+02   -0.58359E-03   -0.58358E-03    28   0.568E-01    0.691E+00
DAV:   6    -0.149614847107E+02    0.63802E+00   -0.34878E+00    19   0.133E+01    0.374E+00
DAV:   7    -0.148322200591E+02    0.12926E+00   -0.68014E-01    28   0.519E+00    0.196E+00
DAV:   8    -0.147959593732E+02    0.36261E-01   -0.14272E-01    18   0.307E+00    0.518E-01
DAV:   9    -0.147951603952E+02    0.79898E-03   -0.80488E-03    20   0.713E-01    0.110E-01
DAV:  10    -0.147959671724E+02   -0.80678E-03   -0.11747E-03    20   0.256E-01    0.392E-02
DAV:  11    -0.147982332791E+02   -0.22661E-02   -0.53618E-04    18   0.139E-01    0.230E-02
DAV:  12    -0.147989422408E+02   -0.70896E-03   -0.78589E-05    20   0.548E-02    0.126E-02
DAV:  13    -0.147998218121E+02   -0.87957E-03   -0.13880E-04    20   0.579E-02    0.615E-03
DAV:  14    -0.147999848776E+02   -0.16307E-03   -0.15090E-05    20   0.211E-02    0.262E-03
DAV:  15    -0.148000713531E+02   -0.86475E-04   -0.72214E-06    18   0.141E-02    0.148E-03
DAV:  16    -0.148000840472E+02   -0.12694E-04   -0.77189E-07    20   0.433E-03    0.680E-04
DAV:  17    -0.148000880629E+02   -0.40157E-05   -0.40367E-07    18   0.293E-03    0.412E-04
DAV:  18    -0.148000888142E+02   -0.75130E-06   -0.41000E-08    19   0.108E-03
   1 F= -.14800089E+02 E0= -.14800089E+02  d E =-.608464E-12
       N       E                     dE             d eps       ncg     rms          rms(c)
DAV:   1    -0.147747222031E+02    0.25366E-01   -0.23594E+00    19   0.162E+01    0.427E-01
DAV:   2    -0.147753861355E+02   -0.66393E-03   -0.35567E-02    18   0.202E+00    0.257E-01
DAV:   3    -0.147743160247E+02    0.10701E-02   -0.48561E-03    20   0.594E-01    0.929E-02
DAV:   4    -0.147743339825E+02   -0.17958E-04   -0.29411E-04    28   0.145E-01    0.510E-02
DAV:   5    -0.147743436837E+02   -0.97012E-05   -0.49892E-05    18   0.447E-02    0.202E-02
DAV:   6    -0.147743621191E+02   -0.18435E-04   -0.12377E-05    18   0.236E-02    0.347E-03
DAV:   7    -0.147743879278E+02   -0.25809E-04   -0.36842E-06    20   0.141E-02    0.265E-03
DAV:   8    -0.147744077678E+02   -0.19840E-04   -0.18415E-06    20   0.922E-03    0.119E-03
DAV:   9    -0.147744233912E+02   -0.15623E-04   -0.81450E-07    20   0.550E-03    0.538E-04
DAV:  10    -0.147744287435E+02   -0.53523E-05   -0.14281E-07    20   0.195E-03    0.252E-04
DAV:  11    -0.147744315491E+02   -0.28056E-05   -0.10117E-07    19   0.138E-03    0.127E-04
DAV:  12    -0.147744319271E+02   -0.37796E-06   -0.83531E-09    20   0.412E-04
   2 F= -.14774432E+02 E0= -.14774432E+02  d E =-.208847E-11
       N       E                     dE             d eps       ncg     rms          rms(c)
DAV:   1    -0.147830234687E+02   -0.85919E-02   -0.93251E+00    19   0.318E+01    0.880E-01
DAV:   2    -0.147826526957E+02    0.37077E-03   -0.12192E-01    19   0.371E+00    0.489E-01
DAV:   3    -0.147793330378E+02    0.33197E-02   -0.18288E-02    28   0.112E+00    0.173E-01
DAV:   4    -0.147794147044E+02   -0.81667E-04   -0.13270E-03    19   0.287E-01    0.976E-02
DAV:   5    -0.147794762564E+02   -0.61552E-04   -0.18461E-04    18   0.885E-02    0.417E-02
DAV:   6    -0.147795599260E+02   -0.83670E-04   -0.69366E-05    20   0.574E-02    0.690E-03
DAV:   7    -0.147796118177E+02   -0.51892E-04   -0.14609E-05    18   0.293E-02    0.538E-03
DAV:   8    -0.147796729592E+02   -0.61142E-04   -0.95194E-06    18   0.216E-02    0.237E-03
DAV:   9    -0.147797001915E+02   -0.27232E-04   -0.27355E-06    20   0.107E-02    0.149E-03
DAV:  10    -0.147797092878E+02   -0.90963E-05   -0.53701E-07    18   0.459E-03    0.452E-04
DAV:  11    -0.147797149676E+02   -0.56798E-05   -0.37878E-07    19   0.320E-03    0.198E-04
DAV:  12    -0.147797160453E+02   -0.10777E-05   -0.51459E-08    20   0.109E-03    0.149E-04
DAV:  13    -0.147797163922E+02   -0.34689E-06   -0.14269E-08    18   0.657E-04
   3 F= -.14779716E+02 E0= -.14779716E+02  d E =-.741936E-10
       N       E                     dE             d eps       ncg     rms          rms(c)
DAV:   1    -0.147776511130E+02    0.20649E-02   -0.24809E+00    18   0.166E+01    0.441E-01
DAV:   2    -0.147796806326E+02   -0.20295E-02   -0.28373E-02    18   0.165E+00    0.261E-01
DAV:   3    -0.147797754823E+02   -0.94850E-04   -0.26362E-03    20   0.353E-01    0.134E-01
DAV:   4    -0.147797870747E+02   -0.11592E-04   -0.34855E-04    18   0.137E-01    0.336E-02
DAV:   5    -0.147797903998E+02   -0.33251E-05   -0.49975E-05    18   0.528E-02    0.656E-03
DAV:   6    -0.147797913105E+02   -0.91067E-06   -0.35973E-06    19   0.159E-02
   4 F= -.14779791E+02 E0= -.14779791E+02  d E =-.700504E-10
       N       E                     dE             d eps       ncg     rms          rms(c)
DAV:   1    -0.147841480746E+02   -0.43577E-02   -0.40687E+00    18   0.192E+01    0.925E-01
DAV:   2    -0.147771693485E+02    0.69787E-02   -0.62791E-02    18   0.227E+00    0.556E-01
DAV:   3    -0.147743853295E+02    0.27840E-02   -0.20437E-02    20   0.129E+00    0.180E-01
DAV:   4    -0.147742539134E+02    0.13142E-03   -0.13532E-03    20   0.277E-01    0.801E-02
DAV:   5    -0.147743061465E+02   -0.52233E-04   -0.19533E-04    18   0.113E-01    0.230E-02
DAV:   6    -0.147743695762E+02   -0.63430E-04   -0.15186E-05    20   0.348E-02    0.641E-03
DAV:   7    -0.147744723455E+02   -0.10277E-03   -0.12873E-05    20   0.197E-02    0.464E-03
DAV:   8    -0.147745422299E+02   -0.69884E-04   -0.48226E-06    20   0.124E-02    0.196E-03
DAV:   9    -0.147745940389E+02   -0.51809E-04   -0.36540E-06    20   0.958E-03    0.973E-04
DAV:  10    -0.147746107266E+02   -0.16688E-04   -0.89071E-07    18   0.420E-03    0.625E-04
DAV:  11    -0.147746148541E+02   -0.41276E-05   -0.16742E-07    20   0.184E-03    0.138E-04
DAV:  12    -0.147746158294E+02   -0.97522E-06   -0.32291E-08    20   0.773E-04
   5 F= -.14774616E+02 E0= -.14774616E+02  d E =-.202195E-11
