 vasp.5.3.5 31Mar14 (build Dec 17 2014 13:12:56) complex                        
  
 executed on         LinuxIFC_ath date 2015.06.29  11:02:06
 serial version


--------------------------------------------------------------------------------------------------------


 INCAR:
 POTCAR:    PAW_PBE O 08Apr2002                   
 POTCAR:    PAW_PBE C 08Apr2002                   
 POTCAR:    PAW_PBE O 08Apr2002                   
   VRHFIN =O: s2p4                                                              
   LEXCH  = PE                                                                  
   EATOM  =   432.3788 eV,   31.7789 Ry                                         
                                                                                
   TITEL  = PAW_PBE O 08Apr2002                                                 
   LULTRA =        F    use ultrasoft PP ?                                      
   IUNSCR =        1    unscreen: 0-lin 1-nonlin 2-no                           
   RPACOR =    1.200    partial core radius                                     
   POMASS =   16.000; ZVAL   =    6.000    mass and valenz                      
   RCORE  =    1.520    outmost cutoff radius                                   
   RWIGS  =    1.550; RWIGS  =    0.820    wigner-seitz radius (au A)           
   ENMAX  =  400.000; ENMIN  =  300.000 eV                                      
   ICORE  =        2    local potential                                         
   LCOR   =        T    correct aug charges                                     
   LPAW   =        T    paw PP                                                  
   EAUG   =  605.392                                                            
   DEXC   =    0.000                                                            
   RMAX   =    1.553    core radius for proj-oper                               
   RAUG   =    1.300    factor for augmentation sphere                          
   RDEP   =    1.550    radius for radial grids                                 
   RDEPT  =    1.329    core radius for aug-charge                              
                                                                                
   Atomic configuration                                                         
    4 entries                                                                   
     n  l   j            E        occ.                                          
     1  0  0.50      -514.6923   2.0000                                         
     2  0  0.50       -23.9615   2.0000                                         
     2  1  0.50        -9.0305   4.0000                                         
     3  2  1.50        -9.5241   0.0000                                         
   Description                                                                  
     l       E           TYP  RCUT    TYP  RCUT                                 
     0    -23.9615318     23  1.200                                             
     0     -9.5240782     23  1.200                                             
     1     -9.0304911     23  1.520                                             
     1      8.1634956     23  1.520                                             
     2     -9.5240782      7  1.500                                             
  local pseudopotential read in
  partial core-charges read in
  partial kinetic energy density read in
  kinetic energy density of atom read in
  atomic valenz-charges read in
  non local Contribution for L=           0  read in
    real space projection operators read in
  non local Contribution for L=           0  read in
    real space projection operators read in
  non local Contribution for L=           1  read in
    real space projection operators read in
  non local Contribution for L=           1  read in
    real space projection operators read in
    PAW grid and wavefunctions read in
 
   number of l-projection  operators is LMAX  =           4
   number of lm-projection operators is LMMAX =           8
 
 POTCAR:    PAW_PBE C 08Apr2002                   
   VRHFIN =C: s2p2                                                              
   LEXCH  = PE                                                                  
   EATOM  =   147.1560 eV,   10.8157 Ry                                         
                                                                                
   TITEL  = PAW_PBE C 08Apr2002                                                 
   LULTRA =        F    use ultrasoft PP ?                                      
   IUNSCR =        1    unscreen: 0-lin 1-nonlin 2-no                           
   RPACOR =    1.200    partial core radius                                     
   POMASS =   12.011; ZVAL   =    4.000    mass and valenz                      
   RCORE  =    1.500    outmost cutoff radius                                   
   RWIGS  =    1.630; RWIGS  =    0.863    wigner-seitz radius (au A)           
   ENMAX  =  400.000; ENMIN  =  300.000 eV                                      
   ICORE  =        2    local potential                                         
   LCOR   =        T    correct aug charges                                     
   LPAW   =        T    paw PP                                                  
   EAUG   =  644.873                                                            
   DEXC   =    0.000                                                            
   RMAX   =    1.529    core radius for proj-oper                               
   RAUG   =    1.300    factor for augmentation sphere                          
   RDEP   =    1.501    radius for radial grids                                 
   RDEPT  =    1.300    core radius for aug-charge                              
                                                                                
   Atomic configuration                                                         
    4 entries                                                                   
     n  l   j            E        occ.                                          
     1  0  0.50      -273.3789   2.0000                                         
     2  0  0.50       -13.7508   2.0000                                         
     2  1  0.50        -5.2854   2.0000                                         
     3  2  1.50        -5.4423   0.0000                                         
   Description                                                                  
     l       E           TYP  RCUT    TYP  RCUT                                 
     0    -13.7508458     23  1.200                                             
     0     -8.2022199     23  1.200                                             
     1     -5.2854383     23  1.500                                             
     1     34.0145650     23  1.500                                             
     2     -5.4423304      7  1.500                                             
  local pseudopotential read in
  partial core-charges read in
  partial kinetic energy density read in
  atomic valenz-charges read in
  non local Contribution for L=           0  read in
    real space projection operators read in
  non local Contribution for L=           0  read in
    real space projection operators read in
  non local Contribution for L=           1  read in
    real space projection operators read in
  non local Contribution for L=           1  read in
    real space projection operators read in
    PAW grid and wavefunctions read in
 
   number of l-projection  operators is LMAX  =           4
   number of lm-projection operators is LMMAX =           8
 
  PAW_PBE O 08Apr2002                   :
 energy of atom  1       EATOM= -432.3788
 kinetic energy error for atom=    0.1156 (will be added to EATOM!!)
  PAW_PBE C 08Apr2002                   :
 energy of atom  2       EATOM= -147.1560
 kinetic energy error for atom=    0.0288 (will be added to EATOM!!)
 
 
 POSCAR: CO vibration                            
  positions in cartesian coordinates
  No initial velocities read in
 exchange correlation table for  LEXCH =        8
   RHO(1)=    0.500       N(1)  =     2000
   RHO(2)=  100.500       N(2)  =     4000
 


--------------------------------------------------------------------------------------------------------


 ion  position               nearest neighbor table
   1  0.000  0.000  0.000-   2 1.14
   2  0.000  0.000  0.143-   1 1.14
 
  LATTYP: Found a simple cubic cell.
 ALAT       =     8.0000000000
  
  Lattice vectors:
  
 A1 = (   8.0000000000,   0.0000000000,   0.0000000000)
 A2 = (   0.0000000000,   8.0000000000,   0.0000000000)
 A3 = (   0.0000000000,   0.0000000000,   8.0000000000)


Analysis of symmetry for initial positions (statically):
=====================================================================
 Subroutine PRICEL returns:
 Original cell was already a primitive cell.
 

 Routine SETGRP: Setting up the symmetry group for a 
 simple cubic supercell.


 Subroutine GETGRP returns: Found  8 space group operations
 (whereof  8 operations were pure point group operations)
 out of a pool of 48 trial point group operations.


The static configuration has the point symmetry C_4v.


Analysis of symmetry for dynamics (positions and initial velocities):
=====================================================================
 Subroutine PRICEL returns:
 Original cell was already a primitive cell.
 

 Routine SETGRP: Setting up the symmetry group for a 
 simple cubic supercell.


 Subroutine GETGRP returns: Found  8 space group operations
 (whereof  8 operations were pure point group operations)
 out of a pool of 48 trial point group operations.


The dynamic configuration has the point symmetry C_4v.


Analysis of constrained symmetry for selective dynamics:
=====================================================================
 Subroutine PRICEL returns:
 Original cell was already a primitive cell.
 

 Routine SETGRP: Setting up the symmetry group for a 
 simple cubic supercell.


 Subroutine GETGRP returns: Found  8 space group operations
 (whereof  8 operations were pure point group operations)
 out of a pool of 48 trial point group operations.


The constrained configuration has the point symmetry C_4v.
 
 
 KPOINTS: Gamma-point only                        
  k-points in reciprocal lattice
Space group operators:
 irot       det(A)        alpha          n_x          n_y          n_z        tau_x        tau_y        tau_z
    1     1.000000     0.000000     1.000000     0.000000     0.000000     0.000000     0.000000     0.000000
    2     1.000000    90.000000     0.000000     0.000000    -1.000000     0.000000     0.000000     0.000000
    3     1.000000   180.000000     0.000000     0.000000     1.000000     0.000000     0.000000     0.000000
    4     1.000000    90.000000     0.000000     0.000000     1.000000     0.000000     0.000000     0.000000
    5    -1.000000   180.000000     1.000000     0.000000     0.000000     0.000000     0.000000     0.000000
    6    -1.000000   180.000000     0.707107     0.707107     0.000000     0.000000     0.000000     0.000000
    7    -1.000000   180.000000     0.000000     1.000000     0.000000     0.000000     0.000000     0.000000
    8    -1.000000   180.000000     0.707107    -0.707107     0.000000     0.000000     0.000000     0.000000

 ----------------------------------------------------------------------------- 
|                                                                             |
|           W    W    AA    RRRRR   N    N  II  N    N   GGGG   !!!           |
|           W    W   A  A   R    R  NN   N  II  NN   N  G    G  !!!           |
|           W    W  A    A  R    R  N N  N  II  N N  N  G       !!!           |
|           W WW W  AAAAAA  RRRRR   N  N N  II  N  N N  G  GGG   !            |
|           WW  WW  A    A  R   R   N   NN  II  N   NN  G    G                |
|           W    W  A    A  R    R  N    N  II  N    N   GGGG   !!!           |
|                                                                             |
|      Your generating k-point grid is not commensurate to the symmetry       |
|      of the lattice.  This can cause   slow convergence with respect        |
|      to k-points for HF type calculations                                   |
|      suggested SOLUTIONS:                                                   |
|       ) if not already the case, use automatic k-point generation           |
|       ) shift your grid to Gamma (G) (e.g. required for hex or fcc lattice) |
|                                                                             |
 ----------------------------------------------------------------------------- 

 
 Subroutine IBZKPT_HF returns following result:
 ==============================================
 
 Found      1 k-points in 1st BZ
 the following      1 k-points will be used (e.g. in the exchange kernel)
 Following reciprocal coordinates:   # in IRBZ
  0.000000  0.000000  0.000000       1 t-inv F


--------------------------------------------------------------------------------------------------------




 Dimension of arrays:
   k-points           NKPTS =      1   k-points in BZ     NKDIM =      1   number of bands    NBANDS=      9
   number of dos      NEDOS =    301   number of ions     NIONS =      2
   non local maximal  LDIM  =      4   non local SUM 2l+1 LMDIM =      8
   total plane-waves  NPLWV =  64000
   max r-space proj   IRMAX =      1   max aug-charges    IRDMAX=   1821
   dimension x,y,z NGX =    40 NGY =   40 NGZ =   40
   dimension x,y,z NGXF=    80 NGYF=   80 NGZF=   80
   support grid    NGXF=    80 NGYF=   80 NGZF=   80
   ions per type =               1   1
 NGX,Y,Z   is equivalent  to a cutoff of   8.31,  8.31,  8.31 a.u.
 NGXF,Y,Z  is equivalent  to a cutoff of  16.62, 16.62, 16.62 a.u.


 I would recommend the setting:
   dimension x,y,z NGX =    39 NGY =   39 NGZ =   39
 SYSTEM =  unknown system                          
 POSCAR =  CO vibration                            

 Startparameter for this run:
   NWRITE =      2    write-flag & timer
   PREC   = normal    normal or accurate (medium, high low for compatibility)
   ISTART =      0    job   : 0-new  1-cont  2-samecut
   ICHARG =      2    charge: 1-file 2-atom 10-const
   ISPIN  =      1    spin polarized calculation?
   LNONCOLLINEAR =      F non collinear calculations
   LSORBIT =      F    spin-orbit coupling
   INIWAV =      1    electr: 0-lowe 1-rand  2-diag
   LASPH  =      F    aspherical Exc in radial PAW
   METAGGA=      F    non-selfconsistent MetaGGA calc.

 Electronic Relaxation 1
   ENCUT  =  400.0 eV  29.40 Ry    5.42 a.u.  13.05 13.05 13.05*2*pi/ulx,y,z
   ENINI  =  400.0     initial cutoff
   ENAUG  =  644.9 eV  augmentation charge cutoff
   NELM   =     60;   NELMIN=  2; NELMDL= -5     # of ELM steps 
   EDIFF  = 0.1E-05   stopping-criterion for ELM
   LREAL  =      F    real-space projection
   NLSPLINE    = F    spline interpolate recip. space projectors
   LCOMPAT=      F    compatible to vasp.4.4
   GGA_COMPAT  = T    GGA compatible to vasp.4.4-vasp.4.6
   LMAXPAW     = -100 max onsite density
   LMAXMIX     =    2 max onsite mixed and CHGCAR
   VOSKOWN=      0    Vosko Wilk Nusair interpolation
   ROPT   =    0.00000   0.00000
 Ionic relaxation
   EDIFFG = 0.1E-04   stopping-criterion for IOM
   NSW    =     61    number of steps for IOM
   NBLOCK =      1;   KBLOCK =      1    inner block; outer block 
   IBRION =      5    ionic relax: 0-MD 1-quasi-New 2-CG
   NFREE  =      2    steps in history (QN), initial steepest desc. (CG)
   ISIF   =      2    stress and relaxation
   IWAVPR =     11    prediction:  0-non 1-charg 2-wave 3-comb
   ISYM   =      2    0-nonsym 1-usesym 2-fastsym
   LCORR  =      T    Harris-Foulkes like correction to forces

   POTIM  = 0.0200    time-step for ionic-motion
   TEIN   =    0.0    initial temperature
   TEBEG  =    0.0;   TEEND  =   0.0 temperature during run
   SMASS  =  -3.00    Nose mass-parameter (am)
   estimated Nose-frequenzy (Omega)   =  0.10E-29 period in steps =****** mass=  -0.146E-26a.u.
   SCALEE = 1.0000    scale energy and forces
   NPACO  =    256;   APACO  = 16.0  distance and # of slots for P.C.
   PSTRESS=    0.0 pullay stress

  Mass of Ions in am
   POMASS =  16.00 12.01
  Ionic Valenz
   ZVAL   =   6.00  4.00
  Atomic Wigner-Seitz radii
   RWIGS  =  -1.00 -1.00
  virtual crystal weights 
   VCA    =   1.00  1.00
   NELECT =      10.0000    total number of electrons
   NUPDOWN=      -1.0000    fix difference up-down

 DOS related values:
   EMIN   =  10.00;   EMAX   =-10.00  energy-range for DOS
   EFERMI =   0.00
   ISMEAR =     0;   SIGMA  =   0.20  broadening in eV -4-tet -1-fermi 0-gaus

 Electronic relaxation 2 (details)
   IALGO  =     38    algorithm
   LDIAG  =      T    sub-space diagonalisation (order eigenvalues)
   LSUBROT=      F    optimize rotation matrix (better conditioning)
   TURBO    =      0    0=normal 1=particle mesh
   IRESTART =      0    0=no restart 2=restart with 2 vectors
   NREBOOT  =      0    no. of reboots
   NMIN     =      0    reboot dimension
   EREF     =   0.00    reference energy to select bands
   IMIX   =      4    mixing-type and parameters
     AMIX     =   0.40;   BMIX     =  1.00
     AMIX_MAG =   1.60;   BMIX_MAG =  1.00
     AMIN     =   0.10
     WC   =   100.;   INIMIX=   1;  MIXPRE=   1;  MAXMIX= -45

 Intra band minimization:
   WEIMIN = 0.0010     energy-eigenvalue tresh-hold
   EBREAK =  0.28E-07  absolut break condition
   DEPER  =   0.30     relativ break condition  

   TIME   =   0.40     timestep for ELM

  volume/ion in A,a.u.               =     256.00      1727.57
  Fermi-wavevector in a.u.,A,eV,Ry     =   0.440878  0.833138  2.644608  0.194373
  Thomas-Fermi vector in A             =   1.415836
 
 Write flags
   LWAVE  =      T    write WAVECAR
   LCHARG =      T    write CHGCAR
   LVTOT  =      F    write LOCPOT, total local potential
   LVHAR  =      F    write LOCPOT, Hartree potential only
   LELF   =      F    write electronic localiz. function (ELF)
   LORBIT =      0    0 simple, 1 ext, 2 COOP (PROOUT)


 Dipole corrections
   LMONO  =      F    monopole corrections only (constant potential shift)
   LDIPOL =      F    correct potential (dipole corrections)
   IDIPOL =      0    1-x, 2-y, 3-z, 4-all directions 
   EPSILON=  1.0000000 bulk dielectric constant

 Exchange correlation treatment:
   GGA     =    --    GGA type
   LEXCH   =     8    internal setting for exchange type
   VOSKOWN=      0    Vosko Wilk Nusair interpolation
   LHFCALC =     F    Hartree Fock is set to
   LHFONE  =     F    Hartree Fock one center treatment
   AEXX    =    0.0000 exact exchange contribution

 Linear response parameters
   LEPSILON=     F    determine dielectric tensor
   LRPA    =     F    only Hartree local field effects (RPA)
   LNABLA  =     F    use nabla operator in PAW spheres
   LVEL    =     F    velocity operator in full k-point grid
   LINTERFAST=   F  fast interpolation
   KINTER  =     0    interpolate to denser k-point grid
   CSHIFT  =0.1000    complex shift for real part using Kramers Kronig
   OMEGAMAX=  -1.0    maximum frequency
   DEG_THRESHOLD= 0.2000000E-02 threshold for treating states as degnerate
   RTIME   =    0.100 relaxation time in fs

 Orbital magnetization related:
   ORBITALMAG=     F  switch on orbital magnetization
   LCHIMAG   =     F  perturbation theory with respect to B field
   DQ        =  0.001000  dq finite difference perturbation B field



--------------------------------------------------------------------------------------------------------


 finite differences
   using selective dynamics as specified on POSCAR
   WARNING: If single coordinates had been selected the selection of coordinates
            is made according to the corresponding   d i r e c t   coordinates!
            Don't support selection of single cartesian coordinates -- sorry ...
  !
 charge density and potential will be updated during run
 non-spin polarized calculation
 Variant of blocked Davidson
 Davidson routine will perform the subspace rotation
 perform sub-space diagonalisation
    after iterative eigenvector-optimisation
 modified Broyden-mixing scheme, WC =      100.0
 initial mixing is a Kerker type mixing with AMIX =  0.4000 and BMIX =      1.0000
 Hartree-type preconditioning will be used
 using additional bands            4
 reciprocal scheme for non local part
 use partial core corrections
 calculate Harris-corrections to forces 
   (improved forces if not selfconsistent)
 use gradient corrections 
 use of overlap-Matrix (Vanderbilt PP)
 Gauss-broadening in eV      SIGMA  =   0.20


--------------------------------------------------------------------------------------------------------


  energy-cutoff  :      400.00
  volume of cell :      512.00
      direct lattice vectors                 reciprocal lattice vectors
     8.000000000  0.000000000  0.000000000     0.125000000  0.000000000  0.000000000
     0.000000000  8.000000000  0.000000000     0.000000000  0.125000000  0.000000000
     0.000000000  0.000000000  8.000000000     0.000000000  0.000000000  0.125000000

  length of vectors
     8.000000000  8.000000000  8.000000000     0.125000000  0.125000000  0.125000000


 
 k-points in units of 2pi/SCALE and weight: Gamma-point only                        
   0.00000000  0.00000000  0.00000000       1.000
 
 k-points in reciprocal lattice and weights: Gamma-point only                        
   0.00000000  0.00000000  0.00000000       1.000
 
 position of ions in fractional coordinates (direct lattice) 
   0.00000000  0.00000000  0.00000000
   0.00000000  0.00000000  0.14287500
 
 position of ions in cartesian coordinates  (Angst):
   0.00000000  0.00000000  0.00000000
   0.00000000  0.00000000  1.14300000
 


--------------------------------------------------------------------------------------------------------


 k-point  1 :   0.0000 0.0000 0.0000  plane waves:    9315

 maximum number of plane-waves:      9315
 maximum index in each direction: 
   IXMAX=   13   IYMAX=   13   IZMAX=   13
   IXMIN=  -13   IYMIN=  -13   IZMIN=  -13

 WARNING: aliasing errors must be expected set NGX to  54 to avoid them
 WARNING: aliasing errors must be expected set NGY to  54 to avoid them
 WARNING: aliasing errors must be expected set NGZ to  54 to avoid them
 aliasing errors are usually negligible using standard VASP settings
 and one can safely disregard these warnings

 total amount of memory used by VASP on root node    64608. kBytes
========================================================================

   base      :      30000. kBytes
   nonl-proj :       1490. kBytes
   grid      :      31769. kBytes
   one-center:          6. kBytes
   wavefun   :       1343. kBytes
 
     INWAV:  cpu time    0.00: real time    0.00
 Broyden mixing: mesh for mixing (old mesh)
   NGX = 27   NGY = 27   NGZ = 27
  (NGX  = 80   NGY  = 80   NGZ  = 80)
  gives a total of  19683 points

 initial charge density was supplied:
 charge density of overlapping atoms calculated
 number of electron      10.0000000 magnetization 
 keeping initial charge density in first step


--------------------------------------------------------------------------------------------------------


 Maximum index for augmentation-charges         1575 (set IRDMAX)


--------------------------------------------------------------------------------------------------------


 First call to EWALD:  gamma=   0.222
 Maximum number of real-space cells 3x 3x 3
 Maximum number of reciprocal cells 3x 3x 3

    FEWALD:  cpu time    0.00: real time    0.00


----------------------------------------- Iteration    1(   1)  ---------------------------------------


    POTLOK:  cpu time    0.60: real time    0.60
    SETDIJ:  cpu time    0.00: real time    0.01
     EDDAV:  cpu time    0.26: real time    0.26
       DOS:  cpu time    0.00: real time    0.00
    --------------------------------------------
      LOOP:  cpu time    0.86: real time    0.86

 eigenvalue-minimisations  :    18
 total energy-change (2. order) : 0.8219686E+02  (-0.2318283E+03)
 number of electron      10.0000000 magnetization 
 augmentation part       10.0000000 magnetization 

 Free energy of the ion-electron system (eV)
  ---------------------------------------------------
  alpha Z        PSCENC =         0.85343271
  Ewald energy   TEWEN  =        48.90784304
  -Hartree energ DENC   =      -512.54826799
  -exchange      EXHF   =         0.00000000
  -V(xc)+E(xc)   XCENC  =        39.20132312
  PAW double counting   =       455.07152327     -457.43959975
  entropy T*S    EENTRO =        -0.01852227
  eigenvalues    EBANDS =       -71.22128936
  atomic energy  EATOM  =       579.39041991
  ---------------------------------------------------
  free energy    TOTEN  =        82.19686269 eV

  energy without entropy =       82.21538496  energy(sigma->0) =       82.20612383


--------------------------------------------------------------------------------------------------------




----------------------------------------- Iteration    1(   2)  ---------------------------------------


     EDDAV:  cpu time    0.44: real time    0.44
       DOS:  cpu time    0.00: real time    0.00
    --------------------------------------------
      LOOP:  cpu time    0.44: real time    0.44

 eigenvalue-minimisations  :    35
 total energy-change (2. order) :-0.8388724E+02  (-0.8345048E+02)
 number of electron      10.0000000 magnetization 
 augmentation part       10.0000000 magnetization 

 Free energy of the ion-electron system (eV)
  ---------------------------------------------------
  alpha Z        PSCENC =         0.85343271
  Ewald energy   TEWEN  =        48.90784304
  -Hartree energ DENC   =      -512.54826799
  -exchange      EXHF   =         0.00000000
  -V(xc)+E(xc)   XCENC  =        39.20132312
  PAW double counting   =       455.07152327     -457.43959975
  entropy T*S    EENTRO =         0.00000000
  eigenvalues    EBANDS =      -155.12704856
  atomic energy  EATOM  =       579.39041991
  ---------------------------------------------------
  free energy    TOTEN  =        -1.69037424 eV

  energy without entropy =       -1.69037424  energy(sigma->0) =       -1.69037424


--------------------------------------------------------------------------------------------------------




----------------------------------------- Iteration    1(   3)  ---------------------------------------


     EDDAV:  cpu time    0.44: real time    0.44
       DOS:  cpu time    0.00: real time    0.00
    --------------------------------------------
      LOOP:  cpu time    0.44: real time    0.44

 eigenvalue-minimisations  :    34
 total energy-change (2. order) :-0.1381156E+02  (-0.1380947E+02)
 number of electron      10.0000000 magnetization 
 augmentation part       10.0000000 magnetization 

 Free energy of the ion-electron system (eV)
  ---------------------------------------------------
  alpha Z        PSCENC =         0.85343271
  Ewald energy   TEWEN  =        48.90784304
  -Hartree energ DENC   =      -512.54826799
  -exchange      EXHF   =         0.00000000
  -V(xc)+E(xc)   XCENC  =        39.20132312
  PAW double counting   =       455.07152327     -457.43959975
  entropy T*S    EENTRO =         0.00000000
  eigenvalues    EBANDS =      -168.93861100
  atomic energy  EATOM  =       579.39041991
  ---------------------------------------------------
  free energy    TOTEN  =       -15.50193669 eV

  energy without entropy =      -15.50193669  energy(sigma->0) =      -15.50193669


--------------------------------------------------------------------------------------------------------




----------------------------------------- Iteration    1(   4)  ---------------------------------------


     EDDAV:  cpu time    0.28: real time    0.29
       DOS:  cpu time    0.00: real time    0.00
    --------------------------------------------
      LOOP:  cpu time    0.28: real time    0.29

 eigenvalue-minimisations  :    20
 total energy-change (2. order) :-0.9698914E-01  (-0.9698647E-01)
 number of electron      10.0000000 magnetization 
 augmentation part       10.0000000 magnetization 

 Free energy of the ion-electron system (eV)
  ---------------------------------------------------
  alpha Z        PSCENC =         0.85343271
  Ewald energy   TEWEN  =        48.90784304
  -Hartree energ DENC   =      -512.54826799
  -exchange      EXHF   =         0.00000000
  -V(xc)+E(xc)   XCENC  =        39.20132312
  PAW double counting   =       455.07152327     -457.43959975
  entropy T*S    EENTRO =         0.00000000
  eigenvalues    EBANDS =      -169.03560015
  atomic energy  EATOM  =       579.39041991
  ---------------------------------------------------
  free energy    TOTEN  =       -15.59892583 eV

  energy without entropy =      -15.59892583  energy(sigma->0) =      -15.59892583


--------------------------------------------------------------------------------------------------------




----------------------------------------- Iteration    1(   5)  ---------------------------------------


     EDDAV:  cpu time    0.35: real time    0.36
       DOS:  cpu time    0.00: real time    0.00
    CHARGE:  cpu time    0.07: real time    0.07
    MIXING:  cpu time    0.02: real time    0.02
    --------------------------------------------
      LOOP:  cpu time    0.45: real time    0.46

 eigenvalue-minimisations  :    28
 total energy-change (2. order) :-0.5835890E-03  (-0.5835842E-03)
 number of electron      10.0000114 magnetization 
 augmentation part        0.7221529 magnetization 

 Broyden mixing:
  rms(total) = 0.69136E+00    rms(broyden)= 0.69023E+00
  rms(prec ) = 0.88542E+00
  weight for this iteration     100.00

 Free energy of the ion-electron system (eV)
  ---------------------------------------------------
  alpha Z        PSCENC =         0.85343271
  Ewald energy   TEWEN  =        48.90784304
  -Hartree energ DENC   =      -512.54826799
  -exchange      EXHF   =         0.00000000
  -V(xc)+E(xc)   XCENC  =        39.20132312
  PAW double counting   =       455.07152327     -457.43959975
  entropy T*S    EENTRO =         0.00000000
  eigenvalues    EBANDS =      -169.03618374
  atomic energy  EATOM  =       579.39041991
  ---------------------------------------------------
  free energy    TOTEN  =       -15.59950942 eV

  energy without entropy =      -15.59950942  energy(sigma->0) =      -15.59950942


--------------------------------------------------------------------------------------------------------




----------------------------------------- Iteration    1(   6)  ---------------------------------------


    POTLOK:  cpu time    0.58: real time    0.58
    SETDIJ:  cpu time    0.00: real time    0.01
     EDDAV:  cpu time    0.27: real time    0.27
       DOS:  cpu time    0.00: real time    0.00
    CHARGE:  cpu time    0.07: real time    0.07
    MIXING:  cpu time    0.02: real time    0.02
    --------------------------------------------
      LOOP:  cpu time    0.95: real time    0.96

 eigenvalue-minimisations  :    19
 total energy-change (2. order) : 0.6380247E+00  (-0.3487803E+00)
 number of electron      10.0000099 magnetization 
 augmentation part        0.6434419 magnetization 

 Broyden mixing:
  rms(total) = 0.37437E+00    rms(broyden)= 0.37406E+00
  rms(prec ) = 0.45712E+00
  weight for this iteration     100.00

 eigenvalues of (default mixing * dielectric matrix)
  average eigenvalue GAMMA=   1.0833
  1.0833

 Free energy of the ion-electron system (eV)
  ---------------------------------------------------
  alpha Z        PSCENC =         0.85343271
  Ewald energy   TEWEN  =        48.90784304
  -Hartree energ DENC   =      -526.40409557
  -exchange      EXHF   =         0.00000000
  -V(xc)+E(xc)   XCENC  =        40.00778411
  PAW double counting   =       601.49670778     -604.02369491
  entropy T*S    EENTRO =         0.00000000
  eigenvalues    EBANDS =      -155.18988178
  atomic energy  EATOM  =       579.39041991
  ---------------------------------------------------
  free energy    TOTEN  =       -14.96148471 eV

  energy without entropy =      -14.96148471  energy(sigma->0) =      -14.96148471


--------------------------------------------------------------------------------------------------------




----------------------------------------- Iteration    1(   7)  ---------------------------------------


    POTLOK:  cpu time    0.60: real time    0.61
    SETDIJ:  cpu time    0.00: real time    0.00
     EDDAV:  cpu time    0.36: real time    0.36
       DOS:  cpu time    0.00: real time    0.00
    CHARGE:  cpu time    0.07: real time    0.07
    MIXING:  cpu time    0.02: real time    0.03
    --------------------------------------------
      LOOP:  cpu time    1.06: real time    1.07

 eigenvalue-minimisations  :    28
 total energy-change (2. order) : 0.1292647E+00  (-0.6801437E-01)
 number of electron      10.0000104 magnetization 
 augmentation part        0.6645552 magnetization 

 Broyden mixing:
  rms(total) = 0.19628E+00    rms(broyden)= 0.19627E+00
  rms(prec ) = 0.23467E+00
  weight for this iteration     100.00

 eigenvalues of (default mixing * dielectric matrix)
  average eigenvalue GAMMA=   1.4612
  0.7521  2.1703

 Free energy of the ion-electron system (eV)
  ---------------------------------------------------
  alpha Z        PSCENC =         0.85343271
  Ewald energy   TEWEN  =        48.90784304
  -Hartree energ DENC   =      -528.22313680
  -exchange      EXHF   =         0.00000000
  -V(xc)+E(xc)   XCENC  =        40.13297692
  PAW double counting   =       697.85988512     -700.35099197
  entropy T*S    EENTRO =         0.00000000
  eigenvalues    EBANDS =      -153.40264898
  atomic energy  EATOM  =       579.39041991
  ---------------------------------------------------
  free energy    TOTEN  =       -14.83222006 eV

  energy without entropy =      -14.83222006  energy(sigma->0) =      -14.83222006


--------------------------------------------------------------------------------------------------------




----------------------------------------- Iteration    1(   8)  ---------------------------------------


    POTLOK:  cpu time    0.59: real time    0.60
    SETDIJ:  cpu time    0.00: real time    0.01
     EDDAV:  cpu time    0.27: real time    0.27
       DOS:  cpu time    0.00: real time    0.00
    CHARGE:  cpu time    0.08: real time    0.08
    MIXING:  cpu time    0.02: real time    0.02
    --------------------------------------------
      LOOP:  cpu time    0.97: real time    0.98

 eigenvalue-minimisations  :    18
 total energy-change (2. order) : 0.3626069E-01  (-0.1427244E-01)
 number of electron      10.0000102 magnetization 
 augmentation part        0.6542843 magnetization 

 Broyden mixing:
  rms(total) = 0.51834E-01    rms(broyden)= 0.51818E-01
  rms(prec ) = 0.62118E-01
  weight for this iteration     100.00

 eigenvalues of (default mixing * dielectric matrix)
  average eigenvalue GAMMA=   1.5681
  2.5087  0.7346  1.4609

 Free energy of the ion-electron system (eV)
  ---------------------------------------------------
  alpha Z        PSCENC =         0.85343271
  Ewald energy   TEWEN  =        48.90784304
  -Hartree energ DENC   =      -532.75429365
  -exchange      EXHF   =         0.00000000
  -V(xc)+E(xc)   XCENC  =        40.40931381
  PAW double counting   =       827.88379352     -830.37518823
  entropy T*S    EENTRO =         0.00000000
  eigenvalues    EBANDS =      -149.11128049
  atomic energy  EATOM  =       579.39041991
  ---------------------------------------------------
  free energy    TOTEN  =       -14.79595937 eV

  energy without entropy =      -14.79595937  energy(sigma->0) =      -14.79595937


--------------------------------------------------------------------------------------------------------




----------------------------------------- Iteration    1(   9)  ---------------------------------------


    POTLOK:  cpu time    0.59: real time    0.59
    SETDIJ:  cpu time    0.00: real time    0.01
     EDDAV:  cpu time    0.28: real time    0.28
       DOS:  cpu time    0.00: real time    0.00
    CHARGE:  cpu time    0.08: real time    0.08
    MIXING:  cpu time    0.03: real time    0.03
    --------------------------------------------
      LOOP:  cpu time    0.99: real time    0.99

 eigenvalue-minimisations  :    20
 total energy-change (2. order) : 0.7989781E-03  (-0.8048805E-03)
 number of electron      10.0000101 magnetization 
 augmentation part        0.6517350 magnetization 

 Broyden mixing:
  rms(total) = 0.11045E-01    rms(broyden)= 0.11032E-01
  rms(prec ) = 0.19053E-01
  weight for this iteration     100.00

 eigenvalues of (default mixing * dielectric matrix)
  average eigenvalue GAMMA=   1.4427
  2.3664  1.7315  0.7558  0.9169

 Free energy of the ion-electron system (eV)
  ---------------------------------------------------
  alpha Z        PSCENC =         0.85343271
  Ewald energy   TEWEN  =        48.90784304
  -Hartree energ DENC   =      -532.79536753
  -exchange      EXHF   =         0.00000000
  -V(xc)+E(xc)   XCENC  =        40.41167453
  PAW double counting   =       866.11963770     -868.58642066
  entropy T*S    EENTRO =         0.00000000
  eigenvalues    EBANDS =      -149.09638010
  atomic energy  EATOM  =       579.39041991
  ---------------------------------------------------
  free energy    TOTEN  =       -14.79516040 eV

  energy without entropy =      -14.79516040  energy(sigma->0) =      -14.79516040


--------------------------------------------------------------------------------------------------------




----------------------------------------- Iteration    1(  10)  ---------------------------------------


    POTLOK:  cpu time    0.56: real time    0.57
    SETDIJ:  cpu time    0.00: real time    0.01
     EDDAV:  cpu time    0.29: real time    0.29
       DOS:  cpu time    0.00: real time    0.00
    CHARGE:  cpu time    0.08: real time    0.08
    MIXING:  cpu time    0.03: real time    0.03
    --------------------------------------------
      LOOP:  cpu time    0.96: real time    0.98

 eigenvalue-minimisations  :    20
 total energy-change (2. order) :-0.8067772E-03  (-0.1174740E-03)
 number of electron      10.0000102 magnetization 
 augmentation part        0.6529335 magnetization 

 Broyden mixing:
  rms(total) = 0.39220E-02    rms(broyden)= 0.39194E-02
  rms(prec ) = 0.10573E-01
  weight for this iteration     100.00

 eigenvalues of (default mixing * dielectric matrix)
  average eigenvalue GAMMA=   1.6048
  0.7510  0.9682  2.4288  2.1549  1.7212

 Free energy of the ion-electron system (eV)
  ---------------------------------------------------
  alpha Z        PSCENC =         0.85343271
  Ewald energy   TEWEN  =        48.90784304
  -Hartree energ DENC   =      -532.63026129
  -exchange      EXHF   =         0.00000000
  -V(xc)+E(xc)   XCENC  =        40.39923952
  PAW double counting   =       864.84164920     -867.30034552
  entropy T*S    EENTRO =         0.00000000
  eigenvalues    EBANDS =      -149.25794475
  atomic energy  EATOM  =       579.39041991
  ---------------------------------------------------
  free energy    TOTEN  =       -14.79596717 eV

  energy without entropy =      -14.79596717  energy(sigma->0) =      -14.79596717


--------------------------------------------------------------------------------------------------------




----------------------------------------- Iteration    1(  11)  ---------------------------------------


    POTLOK:  cpu time    0.58: real time    0.58
    SETDIJ:  cpu time    0.00: real time    0.00
     EDDAV:  cpu time    0.28: real time    0.28
       DOS:  cpu time    0.00: real time    0.00
    CHARGE:  cpu time    0.06: real time    0.06
    MIXING:  cpu time    0.03: real time    0.03
    --------------------------------------------
      LOOP:  cpu time    0.94: real time    0.99

 eigenvalue-minimisations  :    18
 total energy-change (2. order) :-0.2266107E-02  (-0.5361757E-04)
 number of electron      10.0000102 magnetization 
 augmentation part        0.6531281 magnetization 

 Broyden mixing:
  rms(total) = 0.23008E-02    rms(broyden)= 0.22993E-02
  rms(prec ) = 0.46429E-02
  weight for this iteration     100.00

 eigenvalues of (default mixing * dielectric matrix)
  average eigenvalue GAMMA=   1.6478
  3.0766  2.4103  1.6368  0.7491  1.0071  1.0071

 Free energy of the ion-electron system (eV)
  ---------------------------------------------------
  alpha Z        PSCENC =         0.85343271
  Ewald energy   TEWEN  =        48.90784304
  -Hartree energ DENC   =      -532.96391545
  -exchange      EXHF   =         0.00000000
  -V(xc)+E(xc)   XCENC  =        40.41142558
  PAW double counting   =       863.57632806     -866.02752520
  entropy T*S    EENTRO =         0.00000000
  eigenvalues    EBANDS =      -148.94624193
  atomic energy  EATOM  =       579.39041991
  ---------------------------------------------------
  free energy    TOTEN  =       -14.79823328 eV

  energy without entropy =      -14.79823328  energy(sigma->0) =      -14.79823328


--------------------------------------------------------------------------------------------------------




----------------------------------------- Iteration    1(  12)  ---------------------------------------


    POTLOK:  cpu time    0.58: real time    0.58
    SETDIJ:  cpu time    0.01: real time    0.00
     EDDAV:  cpu time    0.28: real time    0.28
       DOS:  cpu time    0.00: real time    0.00
    CHARGE:  cpu time    0.07: real time    0.07
    MIXING:  cpu time    0.03: real time    0.03
    --------------------------------------------
      LOOP:  cpu time    0.97: real time    0.97

 eigenvalue-minimisations  :    20
 total energy-change (2. order) :-0.7089617E-03  (-0.7858944E-05)
 number of electron      10.0000102 magnetization 
 augmentation part        0.6529375 magnetization 

 Broyden mixing:
  rms(total) = 0.12584E-02    rms(broyden)= 0.12583E-02
  rms(prec ) = 0.25936E-02
  weight for this iteration     100.00

 eigenvalues of (default mixing * dielectric matrix)
  average eigenvalue GAMMA=   1.9127
  4.1957  2.5047  2.2231  1.7043  0.7496  0.9681  1.0432

 Free energy of the ion-electron system (eV)
  ---------------------------------------------------
  alpha Z        PSCENC =         0.85343271
  Ewald energy   TEWEN  =        48.90784304
  -Hartree energ DENC   =      -533.00069062
  -exchange      EXHF   =         0.00000000
  -V(xc)+E(xc)   XCENC  =        40.41129743
  PAW double counting   =       862.93731628     -865.38868888
  entropy T*S    EENTRO =         0.00000000
  eigenvalues    EBANDS =      -148.90987211
  atomic energy  EATOM  =       579.39041991
  ---------------------------------------------------
  free energy    TOTEN  =       -14.79894224 eV

  energy without entropy =      -14.79894224  energy(sigma->0) =      -14.79894224


--------------------------------------------------------------------------------------------------------




----------------------------------------- Iteration    1(  13)  ---------------------------------------


    POTLOK:  cpu time    0.56: real time    0.57
    SETDIJ:  cpu time    0.00: real time    0.00
     EDDAV:  cpu time    0.28: real time    0.28
       DOS:  cpu time    0.00: real time    0.00
    CHARGE:  cpu time    0.07: real time    0.07
    MIXING:  cpu time    0.03: real time    0.03
    --------------------------------------------
      LOOP:  cpu time    0.95: real time    0.95

 eigenvalue-minimisations  :    20
 total energy-change (2. order) :-0.8795713E-03  (-0.1387956E-04)
 number of electron      10.0000102 magnetization 
 augmentation part        0.6528434 magnetization 

 Broyden mixing:
  rms(total) = 0.61468E-03    rms(broyden)= 0.61430E-03
  rms(prec ) = 0.10115E-02
  weight for this iteration     100.00

 eigenvalues of (default mixing * dielectric matrix)
  average eigenvalue GAMMA=   2.0343
  5.4519  2.7582  2.4107  1.6076  0.7498  0.9448  1.1057  1.2458

 Free energy of the ion-electron system (eV)
  ---------------------------------------------------
  alpha Z        PSCENC =         0.85343271
  Ewald energy   TEWEN  =        48.90784304
  -Hartree energ DENC   =      -533.02802130
  -exchange      EXHF   =         0.00000000
  -V(xc)+E(xc)   XCENC  =        40.41083486
  PAW double counting   =       863.16571310     -865.61966307
  entropy T*S    EENTRO =         0.00000000
  eigenvalues    EBANDS =      -148.88038106
  atomic energy  EATOM  =       579.39041991
  ---------------------------------------------------
  free energy    TOTEN  =       -14.79982181 eV

  energy without entropy =      -14.79982181  energy(sigma->0) =      -14.79982181


--------------------------------------------------------------------------------------------------------




----------------------------------------- Iteration    1(  14)  ---------------------------------------


    POTLOK:  cpu time    0.58: real time    0.58
    SETDIJ:  cpu time    0.00: real time    0.00
     EDDAV:  cpu time    0.29: real time    0.29
       DOS:  cpu time    0.00: real time    0.00
    CHARGE:  cpu time    0.08: real time    0.08
    MIXING:  cpu time    0.03: real time    0.03
    --------------------------------------------
      LOOP:  cpu time    0.98: real time    0.98

 eigenvalue-minimisations  :    20
 total energy-change (2. order) :-0.1630655E-03  (-0.1508992E-05)
 number of electron      10.0000102 magnetization 
 augmentation part        0.6529035 magnetization 

 Broyden mixing:
  rms(total) = 0.26169E-03    rms(broyden)= 0.26146E-03
  rms(prec ) = 0.46194E-03
  weight for this iteration     100.00

 eigenvalues of (default mixing * dielectric matrix)
  average eigenvalue GAMMA=   2.1781
  5.9506  3.2962  2.4515  2.4515  1.6345  0.7498  0.9430  1.0961  1.0293

 Free energy of the ion-electron system (eV)
  ---------------------------------------------------
  alpha Z        PSCENC =         0.85343271
  Ewald energy   TEWEN  =        48.90784304
  -Hartree energ DENC   =      -533.02598647
  -exchange      EXHF   =         0.00000000
  -V(xc)+E(xc)   XCENC  =        40.41054230
  PAW double counting   =       863.20589930     -865.65998914
  entropy T*S    EENTRO =         0.00000000
  eigenvalues    EBANDS =      -148.88214652
  atomic energy  EATOM  =       579.39041991
  ---------------------------------------------------
  free energy    TOTEN  =       -14.79998488 eV

  energy without entropy =      -14.79998488  energy(sigma->0) =      -14.79998488


--------------------------------------------------------------------------------------------------------




----------------------------------------- Iteration    1(  15)  ---------------------------------------


    POTLOK:  cpu time    0.56: real time    0.56
    SETDIJ:  cpu time    0.00: real time    0.00
     EDDAV:  cpu time    0.26: real time    0.26
       DOS:  cpu time    0.00: real time    0.00
    CHARGE:  cpu time    0.07: real time    0.08
    MIXING:  cpu time    0.03: real time    0.03
    --------------------------------------------
      LOOP:  cpu time    0.94: real time    0.94

 eigenvalue-minimisations  :    18
 total energy-change (2. order) :-0.8647548E-04  (-0.7221389E-06)
 number of electron      10.0000102 magnetization 
 augmentation part        0.6529052 magnetization 

 Broyden mixing:
  rms(total) = 0.14766E-03    rms(broyden)= 0.14760E-03
  rms(prec ) = 0.20256E-03
  weight for this iteration     100.00

 eigenvalues of (default mixing * dielectric matrix)
  average eigenvalue GAMMA=   2.1750
  6.2972  3.6436  2.6025  2.4156  1.6760  0.7498  1.2278  1.2278  0.9550  0.9550

 Free energy of the ion-electron system (eV)
  ---------------------------------------------------
  alpha Z        PSCENC =         0.85343271
  Ewald energy   TEWEN  =        48.90784304
  -Hartree energ DENC   =      -533.01379582
  -exchange      EXHF   =         0.00000000
  -V(xc)+E(xc)   XCENC  =        40.40982325
  PAW double counting   =       863.14161664     -865.59514585
  entropy T*S    EENTRO =         0.00000000
  eigenvalues    EBANDS =      -148.89426524
  atomic energy  EATOM  =       579.39041991
  ---------------------------------------------------
  free energy    TOTEN  =       -14.80007135 eV

  energy without entropy =      -14.80007135  energy(sigma->0) =      -14.80007135


--------------------------------------------------------------------------------------------------------




----------------------------------------- Iteration    1(  16)  ---------------------------------------


    POTLOK:  cpu time    0.59: real time    0.59
    SETDIJ:  cpu time    0.00: real time    0.00
     EDDAV:  cpu time    0.28: real time    0.29
       DOS:  cpu time    0.00: real time    0.00
    CHARGE:  cpu time    0.08: real time    0.08
    MIXING:  cpu time    0.03: real time    0.03
    --------------------------------------------
      LOOP:  cpu time    0.98: real time    0.99

 eigenvalue-minimisations  :    20
 total energy-change (2. order) :-0.1269413E-04  (-0.7718919E-07)
 number of electron      10.0000102 magnetization 
 augmentation part        0.6528934 magnetization 

 Broyden mixing:
  rms(total) = 0.68046E-04    rms(broyden)= 0.68029E-04
  rms(prec ) = 0.91320E-04
  weight for this iteration     100.00

 eigenvalues of (default mixing * dielectric matrix)
  average eigenvalue GAMMA=   2.2471
  6.5011  4.1260  2.8166  2.5067  2.3178  1.6501  0.7498  1.0709  1.0709  0.9541
  0.9541

 Free energy of the ion-electron system (eV)
  ---------------------------------------------------
  alpha Z        PSCENC =         0.85343271
  Ewald energy   TEWEN  =        48.90784304
  -Hartree energ DENC   =      -533.01323146
  -exchange      EXHF   =         0.00000000
  -V(xc)+E(xc)   XCENC  =        40.40985567
  PAW double counting   =       863.14253576     -865.59607413
  entropy T*S    EENTRO =         0.00000000
  eigenvalues    EBANDS =      -148.89486555
  atomic energy  EATOM  =       579.39041991
  ---------------------------------------------------
  free energy    TOTEN  =       -14.80008405 eV

  energy without entropy =      -14.80008405  energy(sigma->0) =      -14.80008405


--------------------------------------------------------------------------------------------------------




----------------------------------------- Iteration    1(  17)  ---------------------------------------


    POTLOK:  cpu time    0.58: real time    0.58
    SETDIJ:  cpu time    0.00: real time    0.00
     EDDAV:  cpu time    0.27: real time    0.27
       DOS:  cpu time    0.00: real time    0.00
    CHARGE:  cpu time    0.07: real time    0.08
    MIXING:  cpu time    0.04: real time    0.04
    --------------------------------------------
      LOOP:  cpu time    0.97: real time    0.98

 eigenvalue-minimisations  :    18
 total energy-change (2. order) :-0.4015701E-05  (-0.4036718E-07)
 number of electron      10.0000102 magnetization 
 augmentation part        0.6528887 magnetization 

 Broyden mixing:
  rms(total) = 0.41198E-04    rms(broyden)= 0.41187E-04
  rms(prec ) = 0.55548E-04
  weight for this iteration     100.00

 eigenvalues of (default mixing * dielectric matrix)
  average eigenvalue GAMMA=   2.2029
  6.5171  4.3506  2.9566  2.4261  2.3115  1.6694  0.7498  1.3390  1.2034  0.9518
  0.9518  1.0080

 Free energy of the ion-electron system (eV)
  ---------------------------------------------------
  alpha Z        PSCENC =         0.85343271
  Ewald energy   TEWEN  =        48.90784304
  -Hartree energ DENC   =      -533.01088921
  -exchange      EXHF   =         0.00000000
  -V(xc)+E(xc)   XCENC  =        40.40977371
  PAW double counting   =       863.17082551     -865.62438419
  entropy T*S    EENTRO =         0.00000000
  eigenvalues    EBANDS =      -148.89710954
  atomic energy  EATOM  =       579.39041991
  ---------------------------------------------------
  free energy    TOTEN  =       -14.80008806 eV

  energy without entropy =      -14.80008806  energy(sigma->0) =      -14.80008806


--------------------------------------------------------------------------------------------------------




----------------------------------------- Iteration    1(  18)  ---------------------------------------


    POTLOK:  cpu time    0.62: real time    0.63
    SETDIJ:  cpu time    0.00: real time    0.01
     EDDAV:  cpu time    0.28: real time    0.28
       DOS:  cpu time    0.00: real time    0.00
    --------------------------------------------
      LOOP:  cpu time    0.90: real time    0.91

 eigenvalue-minimisations  :    19
 total energy-change (2. order) :-0.7512951E-06  (-0.4100023E-08)
 number of electron      10.0000102 magnetization 
 augmentation part        0.6528887 magnetization 

 Free energy of the ion-electron system (eV)
  ---------------------------------------------------
  alpha Z        PSCENC =         0.85343271
  Ewald energy   TEWEN  =        48.90784304
  -Hartree energ DENC   =      -533.01074019
  -exchange      EXHF   =         0.00000000
  -V(xc)+E(xc)   XCENC  =        40.40977262
  PAW double counting   =       863.16597543     -865.61953363
  entropy T*S    EENTRO =         0.00000000
  eigenvalues    EBANDS =      -148.89725871
  atomic energy  EATOM  =       579.39041991
  ---------------------------------------------------
  free energy    TOTEN  =       -14.80008881 eV

  energy without entropy =      -14.80008881  energy(sigma->0) =      -14.80008881


--------------------------------------------------------------------------------------------------------




 average (electrostatic) potential at core
  the test charge radii are     0.7215  0.6991
  (the norm of the test charge is              1.0000)
       1 -83.2948       2 -61.4345
 
 
 
 E-fermi :  -7.7458     XC(G=0):  -1.1794     alpha+bet : -0.3420


 k-point     1 :       0.0000    0.0000    0.0000
  band No.  band energies     occupation 
      1     -28.9865      2.00000
      2     -13.7635      2.00000
      3     -11.4670      2.00000
      4     -11.4670      2.00000
      5      -8.7646      2.00000
      6      -1.8522      0.00000
      7      -1.8522      0.00000
      8      -0.2524      0.00000
      9       1.6998      0.00000


--------------------------------------------------------------------------------------------------------


 soft charge-density along one line, spin component           1
         0         1         2         3         4         5         6         7         8         9
x     9.3471    0.0000    8.7286    0.0000    7.1865    0.0000    5.3439    0.0000    3.6706    0.0000
x     2.3599    0.0000    1.4237    0.0000    0.7982    0.0000    0.4036    0.0000    0.1689    0.0000
x     0.0394    0.0000   -0.0242    0.0000   -0.0484    0.0000   -0.0501    0.0000   -0.0412    0.0000
x    -0.0297    0.0000   -0.0197    0.0000   -0.0124    0.0000   -0.0076    0.0000   -0.0049    0.0000
x     0.0000    0.0000
y     9.3471    0.0000    8.7286    0.0000    7.1865    0.0000    5.3439    0.0000    3.6706    0.0000
y     2.3599    0.0000    1.4237    0.0000    0.7982    0.0000    0.4036    0.0000    0.1689    0.0000
y     0.0394    0.0000   -0.0242    0.0000   -0.0484    0.0000   -0.0501    0.0000   -0.0412    0.0000
y    -0.0297    0.0000   -0.0197    0.0000   -0.0124    0.0000   -0.0076    0.0000   -0.0049    0.0000
y     0.0000    0.0000
z     9.3471    0.0000    7.2649   -2.7937    3.6500   -2.4985    1.8469   -0.5905    1.6674    0.4213
z     1.5289    0.2712    0.9206   -0.0658    0.2760   -0.0513   -0.0226    0.1616   -0.0180    0.2737
z     0.0543    0.2094    0.0534    0.0810   -0.0064    0.0025   -0.0549   -0.0053   -0.0589    0.0146
z    -0.0358    0.0236   -0.0141    0.0168   -0.0045    0.0060   -0.0033   -0.0002   -0.0045   -0.0014
z     0.0000    0.0000
 total charge-density along one line
x    10.0000    0.0000    9.3737    0.0000    7.8086    0.0000    5.9292    0.0000    4.2077    0.0000
x     2.8402    0.0000    1.8419    0.0000    1.1522    0.0000    0.6944    0.0000    0.4003    0.0000
x     0.2172    0.0000    0.1071    0.0000    0.0444    0.0000    0.0121    0.0000   -0.0021    0.0000
x    -0.0070    0.0000   -0.0080    0.0000   -0.0074    0.0000   -0.0063    0.0000   -0.0052    0.0000
x    -0.0007    0.0000   -0.0005    0.0000   -0.0001    0.0000    0.0002    0.0000    0.0003    0.0000
x     0.0003    0.0000    0.0002    0.0000    0.0001    0.0000    0.0000    0.0000   -0.0001    0.0000
x    -0.0001    0.0000   -0.0001    0.0000   -0.0001    0.0000    0.0000    0.0000    0.0000    0.0000
x     0.0001    0.0000    0.0001    0.0000    0.0000    0.0000    0.0000    0.0000    0.0000    0.0000
x     0.0000    0.0000
y    10.0000    0.0000    9.3737    0.0000    7.8086    0.0000    5.9292    0.0000    4.2077    0.0000
y     2.8402    0.0000    1.8419    0.0000    1.1522    0.0000    0.6944    0.0000    0.4003    0.0000
y     0.2172    0.0000    0.1071    0.0000    0.0444    0.0000    0.0121    0.0000   -0.0021    0.0000
y    -0.0070    0.0000   -0.0080    0.0000   -0.0074    0.0000   -0.0063    0.0000   -0.0052    0.0000
y    -0.0007    0.0000   -0.0005    0.0000   -0.0001    0.0000    0.0002    0.0000    0.0003    0.0000
y     0.0003    0.0000    0.0002    0.0000    0.0001    0.0000    0.0000    0.0000   -0.0001    0.0000
y    -0.0001    0.0000   -0.0001    0.0000   -0.0001    0.0000    0.0000    0.0000    0.0000    0.0000
y     0.0001    0.0000    0.0001    0.0000    0.0000    0.0000    0.0000    0.0000    0.0000    0.0000
y     0.0000    0.0000
z    10.0000    0.0000    7.8969   -2.8169    4.2307   -2.5248    2.3700   -0.5987    2.1407    0.4352
z     1.9561    0.2952    1.2938   -0.0452    0.5851   -0.0371    0.2214    0.1740    0.1692    0.2859
z     0.1938    0.2168    0.1489    0.0796    0.0470   -0.0044   -0.0356   -0.0092   -0.0588    0.0190
z    -0.0406    0.0337   -0.0168    0.0256   -0.0057    0.0090   -0.0059   -0.0022   -0.0089   -0.0043
z    -0.0041   -0.0014   -0.0021   -0.0001   -0.0002    0.0000    0.0006   -0.0002    0.0006   -0.0001
z     0.0005    0.0001    0.0004    0.0002    0.0002    0.0001   -0.0001    0.0000   -0.0003    0.0001
z    -0.0003    0.0001   -0.0001    0.0000    0.0000    0.0000    0.0000    0.0000    0.0001    0.0000
z     0.0001    0.0000    0.0001    0.0000    0.0000    0.0000    0.0000    0.0000   -0.0001    0.0000
z    -0.0001    0.0000
 
 pseudopotential strength for first ion, spin component:           1
 14.194 -17.428   0.000  -0.147   0.000   0.000   0.185   0.000
-17.428  21.433   0.000   0.186   0.000   0.000  -0.235   0.000
  0.000   0.000 -11.002   0.000   0.000  13.717   0.000   0.000
 -0.147   0.186   0.000 -11.146   0.000   0.000  13.907   0.000
  0.000   0.000   0.000   0.000 -11.002   0.000   0.000  13.717
  0.000   0.000  13.717   0.000   0.000 -17.047   0.000   0.000
  0.185  -0.235   0.000  13.907   0.000   0.000 -17.298   0.000
  0.000   0.000   0.000   0.000  13.717   0.000   0.000 -17.047
 total augmentation occupancy for first ion, spin component:           1
  3.018   0.572   0.000   0.717   0.000   0.000   0.304   0.000
  0.572   0.210   0.000   0.547   0.000   0.000   0.151   0.000
  0.000   0.000   1.971   0.000   0.000   0.225   0.000   0.000
  0.717   0.547   0.000   2.890   0.000   0.000   0.528   0.000
  0.000   0.000   0.000   0.000   1.971   0.000   0.000   0.225
  0.000   0.000   0.225   0.000   0.000   0.026   0.000   0.000
  0.304   0.151   0.000   0.528   0.000   0.000   0.122   0.000
  0.000   0.000   0.000   0.000   0.225   0.000   0.000   0.026


------------------------ aborting loop because EDIFF is reached ----------------------------------------


    CHARGE:  cpu time    0.08: real time    0.08
    FORLOC:  cpu time    0.05: real time    0.05
    FORNL :  cpu time    0.03: real time    0.03
    STRESS:  cpu time    0.20: real time    0.20
    FORCOR:  cpu time    0.66: real time    0.67
    FORHAR:  cpu time    0.18: real time    0.18
    MIXING:  cpu time    0.04: real time    0.04
    OFIELD:  cpu time    0.00: real time    0.00

  FORCE on cell =-STRESS in cart. coord.  units (eV):
  Direction    XX          YY          ZZ          XY          YZ          ZX
  --------------------------------------------------------------------------------------
  Alpha Z     0.85343     0.85343     0.85343
  Ewald     -86.00472   -86.00472   220.91723     0.00000     0.00000     0.00000
  Hartree   140.53720   140.53720   251.93607     0.00000     0.00000     0.00000
  E(xc)     -43.98931   -43.98931   -42.88000     0.00000     0.00000     0.00000
  Local    -190.68370  -190.68370  -582.52791     0.00000     0.00000     0.00000
  n-local   -18.47454   -18.47454   -29.79978     0.00000     0.00000     0.00000
  augment     6.22381     6.22381     5.74370     0.00000     0.00000     0.00000
  Kinetic   190.76679   190.76679   175.09781     0.00000     0.00000     0.00000
  Fock        0.00000     0.00000     0.00000     0.00000     0.00000     0.00000
  -------------------------------------------------------------------------------------
  Total      -0.77104    -0.77104    -0.65945     0.00000     0.00000     0.00000
  in kB      -2.41279    -2.41279    -2.06360     0.00000     0.00000     0.00000
  external pressure =       -2.30 kB  Pullay stress =        0.00 kB


 VOLUME and BASIS-vectors are now :
 -----------------------------------------------------------------------------
  energy-cutoff  :      400.00
  volume of cell :      512.00
      direct lattice vectors                 reciprocal lattice vectors
     8.000000000  0.000000000  0.000000000     0.125000000  0.000000000  0.000000000
     0.000000000  8.000000000  0.000000000     0.000000000  0.125000000  0.000000000
     0.000000000  0.000000000  8.000000000     0.000000000  0.000000000  0.125000000

  length of vectors
     8.000000000  8.000000000  8.000000000     0.125000000  0.125000000  0.125000000


 FORCES acting on ions
    electron-ion (+dipol)            ewald-force                    non-local-force                 convergence-correction
 -----------------------------------------------------------------------------------------------
   0.611E-13 -.576E-14 0.201E+03   -.124E-15 -.155E-15 -.261E+03   0.000E+00 0.517E-25 0.595E+02   -.205E-13 0.656E-13 -.401E-04
   -.341E-04 -.152E-15 -.233E+03   0.127E-15 0.121E-15 0.261E+03   0.000E+00 0.000E+00 -.281E+02   -.167E-13 0.347E-13 0.318E-04
 -----------------------------------------------------------------------------------------------
   -.341E-04 -.592E-14 -.314E+02   0.264E-17 -.340E-16 0.000E+00   0.000E+00 0.517E-25 0.314E+02   -.372E-13 0.100E-12 -.824E-05
 
 
 POSITION                                       TOTAL-FORCE (eV/Angst)
 -----------------------------------------------------------------------------------
      0.00000      0.00000      0.00000         0.000000      0.000000     -0.076415
      0.00000      0.00000      1.14300         0.000000      0.000000      0.076415
 -----------------------------------------------------------------------------------
    total drift:                               -0.000034      0.000000     -0.002262


--------------------------------------------------------------------------------------------------------



  FREE ENERGIE OF THE ION-ELECTRON SYSTEM (eV)
  ---------------------------------------------------
  free  energy   TOTEN  =       -14.80008881 eV

  energy  without entropy=      -14.80008881  energy(sigma->0) =      -14.80008881
 


--------------------------------------------------------------------------------------------------------


    POTLOK:  cpu time    0.61: real time    0.62


--------------------------------------------------------------------------------------------------------


 Finite differences:
   Step               POTIM =   2.000000000000000E-002
   Degrees of freedom DOF   =            2
  LATTYP: Found a simple cubic cell.
 ALAT       =     8.0000000000
  
  Lattice vectors:
  
 A1 = (   8.0000000000,   0.0000000000,   0.0000000000)
 A2 = (   0.0000000000,   8.0000000000,   0.0000000000)
 A3 = (   0.0000000000,   0.0000000000,   8.0000000000)


Analysis of symmetry for initial positions (statically):
=====================================================================
 Subroutine PRICEL returns:
 Original cell was already a primitive cell.
 

 Routine SETGRP: Setting up the symmetry group for a 
 simple cubic supercell.


 Subroutine GETGRP returns: Found  8 space group operations
 (whereof  8 operations were pure point group operations)
 out of a pool of 48 trial point group operations.


The static configuration has the point symmetry C_4v.


Analysis of symmetry for dynamics (positions and initial velocities):
=====================================================================
 Subroutine PRICEL returns:
 Original cell was already a primitive cell.
 

 Routine SETGRP: Setting up the symmetry group for a 
 simple cubic supercell.


 Subroutine GETGRP returns: Found  8 space group operations
 (whereof  8 operations were pure point group operations)
 out of a pool of 48 trial point group operations.


The dynamic configuration has the point symmetry C_4v.


Analysis of constrained symmetry for selective dynamics:
=====================================================================
 Subroutine PRICEL returns:
 Original cell was already a primitive cell.
 

 Routine SETGRP: Setting up the symmetry group for a 
 simple cubic supercell.


 Subroutine GETGRP returns: Found  8 space group operations
 (whereof  8 operations were pure point group operations)
 out of a pool of 48 trial point group operations.


The constrained configuration has the point symmetry C_4v.
 
 KPOINTS: Gamma-point only                        
  k-points in reciprocal lattice
Space group operators:
 irot       det(A)        alpha          n_x          n_y          n_z        tau_x        tau_y        tau_z
    1     1.000000     0.000000     1.000000     0.000000     0.000000     0.000000     0.000000     0.000000
    2     1.000000    90.000000     0.000000     0.000000    -1.000000     0.000000     0.000000     0.000000
    3     1.000000   180.000000     0.000000     0.000000     1.000000     0.000000     0.000000     0.000000
    4     1.000000    90.000000     0.000000     0.000000     1.000000     0.000000     0.000000     0.000000
    5    -1.000000   180.000000     1.000000     0.000000     0.000000     0.000000     0.000000     0.000000
    6    -1.000000   180.000000     0.707107     0.707107     0.000000     0.000000     0.000000     0.000000
    7    -1.000000   180.000000     0.000000     1.000000     0.000000     0.000000     0.000000     0.000000
    8    -1.000000   180.000000     0.707107    -0.707107     0.000000     0.000000     0.000000     0.000000
    WAVPRE:  cpu time    0.18: real time    0.18
    FEWALD:  cpu time    0.00: real time    0.00
    ORTHCH:  cpu time    0.01: real time    0.01
     LOOP+:  cpu time   18.01: real time   18.17


----------------------------------------- Iteration    2(   1)  ---------------------------------------


    POTLOK:  cpu time    0.58: real time    0.58
    SETDIJ:  cpu time    0.00: real time    0.00
     EDDAV:  cpu time    0.27: real time    0.27
       DOS:  cpu time    0.00: real time    0.00
    CHARGE:  cpu time    0.07: real time    0.08
    MIXING:  cpu time    0.02: real time    0.02
    --------------------------------------------
      LOOP:  cpu time    0.95: real time    0.96

 eigenvalue-minimisations  :    19
 total energy-change (2. order) : 0.2536586E-01  (-0.2359396E+00)
 number of electron      10.0000068 magnetization 
 augmentation part        0.6627225 magnetization 

 Broyden mixing:
  rms(total) = 0.42738E-01    rms(broyden)= 0.42536E-01
  rms(prec ) = 0.51960E-01
  weight for this iteration     100.00

 Free energy of the ion-electron system (eV)
  ---------------------------------------------------
  alpha Z        PSCENC =         0.85343271
  Ewald energy   TEWEN  =        54.22475701
  -Hartree energ DENC   =      -536.11396024
  -exchange      EXHF   =         0.00000000
  -V(xc)+E(xc)   XCENC  =        40.50479451
  PAW double counting   =       863.16090543     -865.61448538
  entropy T*S    EENTRO =         0.00000000
  eigenvalues    EBANDS =      -151.18058615
  atomic energy  EATOM  =       579.39041991
  ---------------------------------------------------
  free energy    TOTEN  =       -14.77472220 eV

  energy without entropy =      -14.77472220  energy(sigma->0) =      -14.77472220


--------------------------------------------------------------------------------------------------------




----------------------------------------- Iteration    2(   2)  ---------------------------------------


    POTLOK:  cpu time    0.61: real time    0.61
    SETDIJ:  cpu time    0.00: real time    0.00
     EDDAV:  cpu time    0.26: real time    0.26
       DOS:  cpu time    0.00: real time    0.00
    CHARGE:  cpu time    0.08: real time    0.08
    MIXING:  cpu time    0.02: real time    0.02
    --------------------------------------------
      LOOP:  cpu time    0.98: real time    0.98

 eigenvalue-minimisations  :    18
 total energy-change (2. order) :-0.6639324E-03  (-0.3556722E-02)
 number of electron      10.0000068 magnetization 
 augmentation part        0.6644900 magnetization 

 Broyden mixing:
  rms(total) = 0.25651E-01    rms(broyden)= 0.25634E-01
  rms(prec ) = 0.31492E-01
  weight for this iteration     100.00

 eigenvalues of (default mixing * dielectric matrix)
  average eigenvalue GAMMA=   1.6781
  1.6781

 Free energy of the ion-electron system (eV)
  ---------------------------------------------------
  alpha Z        PSCENC =         0.85343271
  Ewald energy   TEWEN  =        54.22475701
  -Hartree energ DENC   =      -536.64995444
  -exchange      EXHF   =         0.00000000
  -V(xc)+E(xc)   XCENC  =        40.53519257
  PAW double counting   =       876.16499867     -878.62918318
  entropy T*S    EENTRO =         0.00000000
  eigenvalues    EBANDS =      -150.66504938
  atomic energy  EATOM  =       579.39041991
  ---------------------------------------------------
  free energy    TOTEN  =       -14.77538614 eV

  energy without entropy =      -14.77538614  energy(sigma->0) =      -14.77538614


--------------------------------------------------------------------------------------------------------




----------------------------------------- Iteration    2(   3)  ---------------------------------------


    POTLOK:  cpu time    0.59: real time    0.59
    SETDIJ:  cpu time    0.01: real time    0.01
     EDDAV:  cpu time    0.28: real time    0.28
       DOS:  cpu time    0.00: real time    0.00
    CHARGE:  cpu time    0.07: real time    0.07
    MIXING:  cpu time    0.02: real time    0.02
    --------------------------------------------
      LOOP:  cpu time    0.98: real time    0.98

 eigenvalue-minimisations  :    20
 total energy-change (2. order) : 0.1070111E-02  (-0.4856150E-03)
 number of electron      10.0000068 magnetization 
 augmentation part        0.6642080 magnetization 

 Broyden mixing:
  rms(total) = 0.92884E-02    rms(broyden)= 0.92809E-02
  rms(prec ) = 0.10167E-01
  weight for this iteration     100.00

 eigenvalues of (default mixing * dielectric matrix)
  average eigenvalue GAMMA=   1.5446
  2.1272  0.9619

 Free energy of the ion-electron system (eV)
  ---------------------------------------------------
  alpha Z        PSCENC =         0.85343271
  Ewald energy   TEWEN  =        54.22475701
  -Hartree energ DENC   =      -537.25859353
  -exchange      EXHF   =         0.00000000
  -V(xc)+E(xc)   XCENC  =        40.56802627
  PAW double counting   =       890.73745284     -893.22001368
  entropy T*S    EENTRO =         0.00000000
  eigenvalues    EBANDS =      -150.06979755
  atomic energy  EATOM  =       579.39041991
  ---------------------------------------------------
  free energy    TOTEN  =       -14.77431602 eV

  energy without entropy =      -14.77431602  energy(sigma->0) =      -14.77431602


--------------------------------------------------------------------------------------------------------




----------------------------------------- Iteration    2(   4)  ---------------------------------------


    POTLOK:  cpu time    0.58: real time    0.58
    SETDIJ:  cpu time    0.01: real time    0.01
     EDDAV:  cpu time    0.37: real time    0.38
       DOS:  cpu time    0.00: real time    0.00
    CHARGE:  cpu time    0.08: real time    0.08
    MIXING:  cpu time    0.02: real time    0.03
    --------------------------------------------
      LOOP:  cpu time    1.06: real time    1.08

 eigenvalue-minimisations  :    28
 total energy-change (2. order) :-0.1795778E-04  (-0.2941085E-04)
 number of electron      10.0000068 magnetization 
 augmentation part        0.6636254 magnetization 

 Broyden mixing:
  rms(total) = 0.50969E-02    rms(broyden)= 0.50954E-02
  rms(prec ) = 0.56496E-02
  weight for this iteration     100.00

 eigenvalues of (default mixing * dielectric matrix)
  average eigenvalue GAMMA=   1.5391
  2.3373  1.0809  1.1991

 Free energy of the ion-electron system (eV)
  ---------------------------------------------------
  alpha Z        PSCENC =         0.85343271
  Ewald energy   TEWEN  =        54.22475701
  -Hartree energ DENC   =      -537.29486230
  -exchange      EXHF   =         0.00000000
  -V(xc)+E(xc)   XCENC  =        40.56984231
  PAW double counting   =       894.70273052     -897.18734082
  entropy T*S    EENTRO =         0.00000000
  eigenvalues    EBANDS =      -150.03331332
  atomic energy  EATOM  =       579.39041991
  ---------------------------------------------------
  free energy    TOTEN  =       -14.77433398 eV

  energy without entropy =      -14.77433398  energy(sigma->0) =      -14.77433398


--------------------------------------------------------------------------------------------------------




----------------------------------------- Iteration    2(   5)  ---------------------------------------


    POTLOK:  cpu time    0.58: real time    0.59
    SETDIJ:  cpu time    0.01: real time    0.01
     EDDAV:  cpu time    0.26: real time    0.26
       DOS:  cpu time    0.00: real time    0.00
    CHARGE:  cpu time    0.08: real time    0.08
    MIXING:  cpu time    0.02: real time    0.03
    --------------------------------------------
      LOOP:  cpu time    0.95: real time    0.96

 eigenvalue-minimisations  :    18
 total energy-change (2. order) :-0.9701243E-05  (-0.4989225E-05)
 number of electron      10.0000068 magnetization 
 augmentation part        0.6638631 magnetization 

 Broyden mixing:
  rms(total) = 0.20220E-02    rms(broyden)= 0.20216E-02
  rms(prec ) = 0.24535E-02
  weight for this iteration     100.00

 eigenvalues of (default mixing * dielectric matrix)
  average eigenvalue GAMMA=   1.4971
  2.5743  1.6319  1.0478  0.7343

 Free energy of the ion-electron system (eV)
  ---------------------------------------------------
  alpha Z        PSCENC =         0.85343271
  Ewald energy   TEWEN  =        54.22475701
  -Hartree energ DENC   =      -537.25037534
  -exchange      EXHF   =         0.00000000
  -V(xc)+E(xc)   XCENC  =        40.56737048
  PAW double counting   =       897.41490244     -899.89918890
  entropy T*S    EENTRO =         0.00000000
  eigenvalues    EBANDS =      -150.07566200
  atomic energy  EATOM  =       579.39041991
  ---------------------------------------------------
  free energy    TOTEN  =       -14.77434368 eV

  energy without entropy =      -14.77434368  energy(sigma->0) =      -14.77434368


--------------------------------------------------------------------------------------------------------




----------------------------------------- Iteration    2(   6)  ---------------------------------------


    POTLOK:  cpu time    0.57: real time    0.57
    SETDIJ:  cpu time    0.00: real time    0.01
     EDDAV:  cpu time    0.26: real time    0.26
       DOS:  cpu time    0.00: real time    0.00
    CHARGE:  cpu time    0.08: real time    0.08
    MIXING:  cpu time    0.03: real time    0.03
    --------------------------------------------
      LOOP:  cpu time    0.94: real time    0.94

 eigenvalue-minimisations  :    18
 total energy-change (2. order) :-0.1843539E-04  (-0.1237738E-05)
 number of electron      10.0000068 magnetization 
 augmentation part        0.6638314 magnetization 

 Broyden mixing:
  rms(total) = 0.34741E-03    rms(broyden)= 0.34729E-03
  rms(prec ) = 0.71226E-03
  weight for this iteration     100.00

 eigenvalues of (default mixing * dielectric matrix)
  average eigenvalue GAMMA=   1.5250
  2.6196  1.6130  1.6130  0.9757  0.8035

 Free energy of the ion-electron system (eV)
  ---------------------------------------------------
  alpha Z        PSCENC =         0.85343271
  Ewald energy   TEWEN  =        54.22475701
  -Hartree energ DENC   =      -537.23143507
  -exchange      EXHF   =         0.00000000
  -V(xc)+E(xc)   XCENC  =        40.56634506
  PAW double counting   =       898.87258773     -901.35656102
  entropy T*S    EENTRO =         0.00000000
  eigenvalues    EBANDS =      -150.09390845
  atomic energy  EATOM  =       579.39041991
  ---------------------------------------------------
  free energy    TOTEN  =       -14.77436212 eV

  energy without entropy =      -14.77436212  energy(sigma->0) =      -14.77436212


--------------------------------------------------------------------------------------------------------




----------------------------------------- Iteration    2(   7)  ---------------------------------------


    POTLOK:  cpu time    0.60: real time    0.61
    SETDIJ:  cpu time    0.00: real time    0.01
     EDDAV:  cpu time    0.28: real time    0.28
       DOS:  cpu time    0.00: real time    0.00
    CHARGE:  cpu time    0.08: real time    0.08
    MIXING:  cpu time    0.03: real time    0.03
    --------------------------------------------
      LOOP:  cpu time    0.99: real time    1.00

 eigenvalue-minimisations  :    20
 total energy-change (2. order) :-0.2580871E-04  (-0.3684204E-06)
 number of electron      10.0000068 magnetization 
 augmentation part        0.6637668 magnetization 

 Broyden mixing:
  rms(total) = 0.26477E-03    rms(broyden)= 0.26442E-03
  rms(prec ) = 0.51413E-03
  weight for this iteration     100.00

 eigenvalues of (default mixing * dielectric matrix)
  average eigenvalue GAMMA=   1.4922
  2.3280  2.3280  1.5768  1.0493  0.8356  0.8356

 Free energy of the ion-electron system (eV)
  ---------------------------------------------------
  alpha Z        PSCENC =         0.85343271
  Ewald energy   TEWEN  =        54.22475701
  -Hartree energ DENC   =      -537.24257598
  -exchange      EXHF   =         0.00000000
  -V(xc)+E(xc)   XCENC  =        40.56702780
  PAW double counting   =       898.88322311     -901.36715338
  entropy T*S    EENTRO =         0.00000000
  eigenvalues    EBANDS =      -150.08351911
  atomic energy  EATOM  =       579.39041991
  ---------------------------------------------------
  free energy    TOTEN  =       -14.77438793 eV

  energy without entropy =      -14.77438793  energy(sigma->0) =      -14.77438793


--------------------------------------------------------------------------------------------------------




----------------------------------------- Iteration    2(   8)  ---------------------------------------


    POTLOK:  cpu time    0.58: real time    0.59
    SETDIJ:  cpu time    0.00: real time    0.00
     EDDAV:  cpu time    0.28: real time    0.28
       DOS:  cpu time    0.00: real time    0.00
    CHARGE:  cpu time    0.08: real time    0.08
    MIXING:  cpu time    0.03: real time    0.03
[...]

 eigenvalue-minimisations  :    18
 total energy-change (2. order) :-0.1668763E-04  (-0.8907075E-07)
 number of electron      10.0000101 magnetization 
 augmentation part        0.6638155 magnetization 

 Broyden mixing:
  rms(total) = 0.62521E-04    rms(broyden)= 0.62517E-04
  rms(prec ) = 0.79608E-04
  weight for this iteration     100.00

 eigenvalues of (default mixing * dielectric matrix)
  average eigenvalue GAMMA=   2.0874
  5.8814  2.9734  2.4649  2.0511  1.6460  0.8294  0.9877  0.9877  0.9653

 Free energy of the ion-electron system (eV)
  ---------------------------------------------------
  alpha Z        PSCENC =         0.85343271
  Ewald energy   TEWEN  =        54.22475701
  -Hartree energ DENC   =      -537.24433878
  -exchange      EXHF   =         0.00000000
  -V(xc)+E(xc)   XCENC  =        40.56701146
  PAW double counting   =       898.75604553     -901.23995642
  entropy T*S    EENTRO =         0.00000000
  eigenvalues    EBANDS =      -150.08198215
  atomic energy  EATOM  =       579.39041991
  ---------------------------------------------------
  free energy    TOTEN  =       -14.77461073 eV

  energy without entropy =      -14.77461073  energy(sigma->0) =      -14.77461073


--------------------------------------------------------------------------------------------------------




----------------------------------------- Iteration    5(  11)  ---------------------------------------


    POTLOK:  cpu time    0.58: real time    0.59
    SETDIJ:  cpu time    0.00: real time    0.01
     EDDAV:  cpu time    0.28: real time    0.29
       DOS:  cpu time    0.00: real time    0.00
    CHARGE:  cpu time    0.08: real time    0.08
    MIXING:  cpu time    0.03: real time    0.03
    --------------------------------------------
      LOOP:  cpu time    0.98: real time    1.02

 eigenvalue-minimisations  :    20
 total energy-change (2. order) :-0.4127568E-05  (-0.1674162E-07)
 number of electron      10.0000101 magnetization 
 augmentation part        0.6638160 magnetization 

 Broyden mixing:
  rms(total) = 0.13815E-04    rms(broyden)= 0.13797E-04
  rms(prec ) = 0.24045E-04
  weight for this iteration     100.00

 eigenvalues of (default mixing * dielectric matrix)
  average eigenvalue GAMMA=   2.1138
  6.2386  2.8860  2.7316  2.4287  1.6572  1.3981  0.8300  0.9976  0.9976  0.9721

 Free energy of the ion-electron system (eV)
  ---------------------------------------------------
  alpha Z        PSCENC =         0.85343271
  Ewald energy   TEWEN  =        54.22475701
  -Hartree energ DENC   =      -537.24392398
  -exchange      EXHF   =         0.00000000
  -V(xc)+E(xc)   XCENC  =        40.56700421
  PAW double counting   =       898.71757215     -901.20146795
  entropy T*S    EENTRO =         0.00000000
  eigenvalues    EBANDS =      -150.08240890
  atomic energy  EATOM  =       579.39041991
  ---------------------------------------------------
  free energy    TOTEN  =       -14.77461485 eV

  energy without entropy =      -14.77461485  energy(sigma->0) =      -14.77461485


--------------------------------------------------------------------------------------------------------




----------------------------------------- Iteration    5(  12)  ---------------------------------------


    POTLOK:  cpu time    0.59: real time    0.60
    SETDIJ:  cpu time    0.00: real time    0.01
     EDDAV:  cpu time    0.28: real time    0.28
       DOS:  cpu time    0.00: real time    0.00
    --------------------------------------------
      LOOP:  cpu time    0.88: real time    0.90

 eigenvalue-minimisations  :    20
 total energy-change (2. order) :-0.9752246E-06  (-0.3229065E-08)
 number of electron      10.0000101 magnetization 
 augmentation part        0.6638160 magnetization 

 Free energy of the ion-electron system (eV)
  ---------------------------------------------------
  alpha Z        PSCENC =         0.85343271
  Ewald energy   TEWEN  =        54.22475701
  -Hartree energ DENC   =      -537.24353663
  -exchange      EXHF   =         0.00000000
  -V(xc)+E(xc)   XCENC  =        40.56698823
  PAW double counting   =       898.71982864     -901.20370828
  entropy T*S    EENTRO =         0.00000000
  eigenvalues    EBANDS =      -150.08279741
  atomic energy  EATOM  =       579.39041991
  ---------------------------------------------------
  free energy    TOTEN  =       -14.77461583 eV

  energy without entropy =      -14.77461583  energy(sigma->0) =      -14.77461583


--------------------------------------------------------------------------------------------------------




 average (electrostatic) potential at core
  the test charge radii are     0.7215  0.6991
  (the norm of the test charge is              1.0000)
       1 -83.3877       2 -61.3571
 
 
 
 E-fermi :  -7.7257     XC(G=0):  -1.1874     alpha+bet : -0.3420


 k-point     1 :       0.0000    0.0000    0.0000
  band No.  band energies     occupation 
      1     -29.2832      2.00000
      2     -13.7489      2.00000
      3     -11.6444      2.00000
      4     -11.6444      2.00000
      5      -8.7206      2.00000
      6      -1.6595      0.00000
      7      -1.6595      0.00000
      8      -0.2581      0.00000
      9       1.7019      0.00000


--------------------------------------------------------------------------------------------------------


 soft charge-density along one line, spin component           1
         0         1         2         3         4         5         6         7         8         9
x     9.3362    0.0000    8.7204    0.0000    7.1845    0.0000    5.3475    0.0000    3.6772    0.0000
x     2.3671    0.0000    1.4300    0.0000    0.8030    0.0000    0.4069    0.0000    0.1710    0.0000
x     0.0406    0.0000   -0.0236    0.0000   -0.0481    0.0000   -0.0501    0.0000   -0.0413    0.0000
x    -0.0298    0.0000   -0.0197    0.0000   -0.0124    0.0000   -0.0076    0.0000   -0.0050    0.0000
x     0.0000    0.0000
y     9.3362    0.0000    8.7204    0.0000    7.1845    0.0000    5.3475    0.0000    3.6772    0.0000
y     2.3671    0.0000    1.4300    0.0000    0.8030    0.0000    0.4069    0.0000    0.1710    0.0000
y     0.0406    0.0000   -0.0236    0.0000   -0.0481    0.0000   -0.0501    0.0000   -0.0413    0.0000
y    -0.0298    0.0000   -0.0197    0.0000   -0.0124    0.0000   -0.0076    0.0000   -0.0050    0.0000
y     0.0000    0.0000
z     9.3362    0.0000    7.2958   -2.7637    3.7164   -2.5220    1.8666   -0.6636    1.6320    0.3716
z     1.4949    0.2661    0.9146   -0.0638    0.2760   -0.0681   -0.0405    0.1387   -0.0488    0.2675
z     0.0312    0.2233    0.0490    0.1001    0.0015    0.0124   -0.0470   -0.0064   -0.0568    0.0095
z    -0.0379    0.0205   -0.0164    0.0167   -0.0053    0.0071   -0.0030    0.0006   -0.0039   -0.0011
z     0.0000    0.0000
 total charge-density along one line
x    10.0000    0.0000    9.3763    0.0000    7.8170    0.0000    5.9428    0.0000    4.2236    0.0000
x     2.8559    0.0000    1.8558    0.0000    1.1637    0.0000    0.7034    0.0000    0.4072    0.0000
x     0.2222    0.0000    0.1107    0.0000    0.0470    0.0000    0.0139    0.0000   -0.0009    0.0000
x    -0.0062    0.0000   -0.0075    0.0000   -0.0071    0.0000   -0.0061    0.0000   -0.0051    0.0000
x    -0.0006    0.0000   -0.0005    0.0000   -0.0001    0.0000    0.0002    0.0000    0.0003    0.0000
x     0.0003    0.0000    0.0002    0.0000    0.0001    0.0000    0.0000    0.0000   -0.0001    0.0000
x    -0.0001    0.0000   -0.0001    0.0000   -0.0001    0.0000    0.0000    0.0000    0.0000    0.0000
x     0.0001    0.0000    0.0001    0.0000    0.0000    0.0000    0.0000    0.0000    0.0000    0.0000
x     0.0000    0.0000
y    10.0000    0.0000    9.3763    0.0000    7.8170    0.0000    5.9428    0.0000    4.2236    0.0000
y     2.8559    0.0000    1.8558    0.0000    1.1637    0.0000    0.7034    0.0000    0.4072    0.0000
y     0.2222    0.0000    0.1107    0.0000    0.0470    0.0000    0.0139    0.0000   -0.0009    0.0000
y    -0.0062    0.0000   -0.0075    0.0000   -0.0071    0.0000   -0.0061    0.0000   -0.0051    0.0000
y    -0.0006    0.0000   -0.0005    0.0000   -0.0001    0.0000    0.0002    0.0000    0.0003    0.0000
y     0.0003    0.0000    0.0002    0.0000    0.0001    0.0000    0.0000    0.0000   -0.0001    0.0000
y    -0.0001    0.0000   -0.0001    0.0000   -0.0001    0.0000    0.0000    0.0000    0.0000    0.0000
y     0.0001    0.0000    0.0001    0.0000    0.0000    0.0000    0.0000    0.0000    0.0000    0.0000
y     0.0000    0.0000
z    10.0000    0.0000    7.9373   -2.7899    4.3034   -2.5525    2.3928   -0.6750    2.1070    0.3850
z     1.9244    0.2913    1.2914   -0.0421    0.5886   -0.0544    0.2051    0.1495    0.1380    0.2788
z     0.1700    0.2314    0.1450    0.0999    0.0566    0.0054   -0.0266   -0.0125   -0.0579    0.0111
z    -0.0455    0.0292   -0.0218    0.0260   -0.0077    0.0116   -0.0054   -0.0002   -0.0077   -0.0038
z    -0.0038   -0.0018   -0.0021   -0.0004   -0.0002    0.0000    0.0007   -0.0002    0.0007   -0.0002
z     0.0005    0.0000    0.0004    0.0002    0.0002    0.0001   -0.0001    0.0000   -0.0003    0.0000
z    -0.0003    0.0001   -0.0002    0.0001    0.0000    0.0000    0.0000    0.0000    0.0001    0.0000
z     0.0001    0.0000    0.0001    0.0000    0.0000    0.0000    0.0000    0.0000   -0.0001    0.0000
z    -0.0001    0.0000
 
 pseudopotential strength for first ion, spin component:           1
 14.206 -17.444   0.000  -0.156   0.000   0.000   0.196   0.000
-17.444  21.453   0.000   0.197   0.000   0.000  -0.249   0.000
  0.000   0.000 -11.011   0.000   0.000  13.729   0.000   0.000
 -0.156   0.197   0.000 -11.173   0.000   0.000  13.942   0.000
  0.000   0.000   0.000   0.000 -11.011   0.000   0.000  13.729
  0.000   0.000  13.729   0.000   0.000 -17.063   0.000   0.000
  0.196  -0.249   0.000  13.942   0.000   0.000 -17.344   0.000
  0.000   0.000   0.000   0.000  13.729   0.000   0.000 -17.063
 total augmentation occupancy for first ion, spin component:           1
  3.070   0.599   0.000   0.752   0.000   0.000   0.315   0.000
  0.599   0.220   0.000   0.561   0.000   0.000   0.155   0.000
  0.000   0.000   1.993   0.000   0.000   0.233   0.000   0.000
  0.752   0.561   0.000   2.929   0.000   0.000   0.533   0.000
  0.000   0.000   0.000   0.000   1.993   0.000   0.000   0.233
  0.000   0.000   0.233   0.000   0.000   0.027   0.000   0.000
  0.315   0.155   0.000   0.533   0.000   0.000   0.123   0.000
  0.000   0.000   0.000   0.000   0.233   0.000   0.000   0.027


------------------------ aborting loop because EDIFF is reached ----------------------------------------


    CHARGE:  cpu time    0.08: real time    0.08
    FORLOC:  cpu time    0.04: real time    0.05
    FORNL :  cpu time    0.03: real time    0.03
    STRESS:  cpu time    0.19: real time    0.20
    FORCOR:  cpu time    0.63: real time    0.64
    FORHAR:  cpu time    0.18: real time    0.18
    MIXING:  cpu time    0.03: real time    0.03
    OFIELD:  cpu time    0.00: real time    0.00

  FORCE on cell =-STRESS in cart. coord.  units (eV):
  Direction    XX          YY          ZZ          XY          YZ          ZX
  --------------------------------------------------------------------------------------
  Alpha Z     0.85343     0.85343     0.85343
  Ewald     -85.97602   -85.97602   226.17674     0.00000     0.00000     0.00000
  Hartree   142.16447   142.16447   252.91427     0.00000     0.00000     0.00000
  E(xc)     -44.15520   -44.15520   -43.04204     0.00000     0.00000     0.00000
  Local    -192.78657  -192.78657  -586.34731     0.00000     0.00000     0.00000
  n-local   -18.74496   -18.74496   -30.37071     0.00000     0.00000     0.00000
  augment     6.25693     6.25693     5.62381     0.00000     0.00000     0.00000
  Kinetic   191.61824   191.61824   176.27282     0.00000     0.00000     0.00000
  Fock        0.00000     0.00000     0.00000     0.00000     0.00000     0.00000
  -------------------------------------------------------------------------------------
  Total      -0.76967    -0.76967     2.08101     0.00000     0.00000     0.00000
  in kB      -2.40849    -2.40849     6.51201     0.00000     0.00000     0.00000
  external pressure =        0.57 kB  Pullay stress =        0.00 kB


 VOLUME and BASIS-vectors are now :
 -----------------------------------------------------------------------------
  energy-cutoff  :      400.00
  volume of cell :      512.00
      direct lattice vectors                 reciprocal lattice vectors
     8.000000000  0.000000000  0.000000000     0.125000000  0.000000000  0.000000000
     0.000000000  8.000000000  0.000000000     0.000000000  0.125000000  0.000000000
     0.000000000  0.000000000  8.000000000     0.000000000  0.000000000  0.125000000

  length of vectors
     8.000000000  8.000000000  8.000000000     0.125000000  0.125000000  0.125000000


 FORCES acting on ions
    electron-ion (+dipol)            ewald-force                    non-local-force                 convergence-correction
 -----------------------------------------------------------------------------------------------
   -.336E-15 0.814E-14 0.207E+03   -.386E-16 -.794E-16 -.271E+03   0.646E-26 -.646E-26 0.610E+02   -.246E-13 0.517E-13 -.332E-03
   -.213E-04 0.774E-14 -.240E+03   0.413E-16 0.453E-16 0.271E+03   0.000E+00 -.404E-27 -.281E+02   -.205E-13 0.276E-13 0.267E-04
 -----------------------------------------------------------------------------------------------
   -.213E-04 0.159E-13 -.329E+02   0.264E-17 -.340E-16 0.000E+00   0.646E-26 -.687E-26 0.329E+02   -.451E-13 0.792E-13 -.305E-03
 
 
 POSITION                                       TOTAL-FORCE (eV/Angst)
 -----------------------------------------------------------------------------------
      0.00000      0.00000      0.00000         0.000000      0.000000     -2.531155
      0.00000      0.00000      1.12300         0.000000      0.000000      2.531155
 -----------------------------------------------------------------------------------
    total drift:                               -0.000021      0.000000     -0.001465


--------------------------------------------------------------------------------------------------------



  FREE ENERGIE OF THE ION-ELECTRON SYSTEM (eV)
  ---------------------------------------------------
  free  energy   TOTEN  =       -14.77461583 eV

  energy  without entropy=      -14.77461583  energy(sigma->0) =      -14.77461583
 
 d Force =-0.9579291E-02[-0.101E+00, 0.821E-01]  d Energy =-0.5175481E-02-0.440E-02
 d Force =-0.1045376E+02[-0.108E+02,-0.101E+02]  d Ewald  =-0.1044728E+02-0.648E-02


--------------------------------------------------------------------------------------------------------


    POTLOK:  cpu time    0.59: real time    0.59


--------------------------------------------------------------------------------------------------------


 Finite differences progress:
  Degree of freedom:   2/  2
  Displacement:        2/  2
  Total:               4/  4
 
 SECOND DERIVATIVES (NOT SYMMETRIZED)
 ------------------------------------
               1Z          2Z 
  1Z  -114.872284  114.872284
  2Z   114.583648 -114.583648
 
 
 Eigenvectors and eigenvalues of the dynamical matrix
 ----------------------------------------------------
 
 
   1 f  =   63.923608 THz   401.643873 2PiTHz 2132.261972 cm-1   264.366886 meV
             X         Y         Z           dx          dy          dz
      0.000000  0.000000  0.000000            0           0   -0.655296  
      0.000000  0.000000  1.143000            0           0    0.755373  
 
   2 f/i=    0.039803 THz     0.250087 2PiTHz    1.327670 cm-1     0.164610 meV
             X         Y         Z           dx          dy          dz
      0.000000  0.000000  0.000000            0           0   -0.755373  
      0.000000  0.000000  1.143000            0           0   -0.655296  
 
 Finite differences POTIM=  2.000000000000000E-002
  LATTYP: Found a simple cubic cell.
 ALAT       =     8.0000000000
  
  Lattice vectors:
  
 A1 = (   8.0000000000,   0.0000000000,   0.0000000000)
 A2 = (   0.0000000000,   8.0000000000,   0.0000000000)
 A3 = (   0.0000000000,   0.0000000000,   8.0000000000)


Analysis of symmetry for initial positions (statically):
=====================================================================
 Subroutine PRICEL returns:
 Original cell was already a primitive cell.
 

 Routine SETGRP: Setting up the symmetry group for a 
 simple cubic supercell.


 Subroutine GETGRP returns: Found  8 space group operations
 (whereof  8 operations were pure point group operations)
 out of a pool of 48 trial point group operations.


The static configuration has the point symmetry C_4v.


Analysis of symmetry for dynamics (positions and initial velocities):
=====================================================================
 Subroutine PRICEL returns:
 Original cell was already a primitive cell.
 

 Routine SETGRP: Setting up the symmetry group for a 
 simple cubic supercell.


 Subroutine GETGRP returns: Found  8 space group operations
 (whereof  8 operations were pure point group operations)
 out of a pool of 48 trial point group operations.


The dynamic configuration has the point symmetry C_4v.


Analysis of constrained symmetry for selective dynamics:
=====================================================================
 Subroutine PRICEL returns:
 Original cell was already a primitive cell.
 

 Routine SETGRP: Setting up the symmetry group for a 
 simple cubic supercell.


 Subroutine GETGRP returns: Found  8 space group operations
 (whereof  8 operations were pure point group operations)
 out of a pool of 48 trial point group operations.


The constrained configuration has the point symmetry C_4v.
 
 KPOINTS: Gamma-point only                        
  k-points in reciprocal lattice
Space group operators:
 irot       det(A)        alpha          n_x          n_y          n_z        tau_x        tau_y        tau_z
    1     1.000000     0.000000     1.000000     0.000000     0.000000     0.000000     0.000000     0.000000
    2     1.000000    90.000000     0.000000     0.000000    -1.000000     0.000000     0.000000     0.000000
    3     1.000000   180.000000     0.000000     0.000000     1.000000     0.000000     0.000000     0.000000
    4     1.000000    90.000000     0.000000     0.000000     1.000000     0.000000     0.000000     0.000000
    5    -1.000000   180.000000     1.000000     0.000000     0.000000     0.000000     0.000000     0.000000
    6    -1.000000   180.000000     0.707107     0.707107     0.000000     0.000000     0.000000     0.000000
    7    -1.000000   180.000000     0.000000     1.000000     0.000000     0.000000     0.000000     0.000000
    8    -1.000000   180.000000     0.707107    -0.707107     0.000000     0.000000     0.000000     0.000000
 writing wavefunctions
     LOOP+:  cpu time   13.14: real time   13.26
    4ORBIT:  cpu time    0.00: real time    0.00

 total amount of memory used by VASP on root node    64608. kBytes
========================================================================

   base      :      30000. kBytes
   nonl-proj :       1490. kBytes
   grid      :      31769. kBytes
   one-center:          6. kBytes
   wavefun   :       1343. kBytes
 
  
  
 General timing and accounting informations for this job:
 ========================================================
  
                  Total CPU time used (sec):       68.297
                            User time (sec):       66.062
                          System time (sec):        2.235
                         Elapsed time (sec):       68.658
  
                   Maximum memory used (kb):      121560.
                   Average memory used (kb):           0.
  
                          Minor page faults:       556271
                          Major page faults:            1
                 Voluntary context switches:           25
