<?xml version="1.0" encoding="ISO-8859-1"?>
<modeling>
 <generator>
  <i name="program" type="string">vasp </i>
  <i name="version" type="string">5.3.5  </i>
  <i name="subversion" type="string">31Mar14 (build Dec 17 2014 13:12:56) complex                          serial </i>
  <i name="platform" type="string">LinuxIFC_ath </i>
  <i name="date" type="string">2015 06 29 </i>
  <i name="time" type="string">11:02:06 </i>
 </generator>
 <incar>
  <i type="string" name="PREC">normal</i>
  <i type="int" name="IBRION">     5</i>
  <i type="int" name="NFREE">     2</i>
  <i type="int" name="NSW">     1</i>
  <i name="POTIM">      0.02000000</i>
  <i type="int" name="ISMEAR">     0</i>
 </incar>
 <kpoints>
  <varray name="kpointlist" >
   <v>       0.00000000       0.00000000       0.00000000 </v>
  </varray>
  <varray name="weights" >
   <v>       1.00000000 </v>
  </varray>
 </kpoints>
 <parameters>
  <separator name="general" >
   <i type="string" name="SYSTEM">unknown system</i>
   <i type="logical" name="LCOMPAT"> F  </i>
  </separator>
  <separator name="electronic" >
   <i type="string" name="PREC">normal</i>
   <i name="ENMAX">    400.00000000</i>
   <i name="ENAUG">    644.87300000</i>
   <i name="EDIFF">      0.00000100</i>
   <i type="int" name="IALGO">    38</i>
   <i type="int" name="IWAVPR">    11</i>
   <i type="int" name="NBANDS">     9</i>
   <i name="NELECT">     10.00000000</i>
   <i type="int" name="TURBO">     0</i>
   <i type="int" name="IRESTART">     0</i>
   <i type="int" name="NREBOOT">     0</i>
   <i type="int" name="NMIN">     0</i>
   <i name="EREF">      0.00000000</i>
   <separator name="electronic smearing" >
    <i type="int" name="ISMEAR">     0</i>
    <i name="SIGMA">      0.20000000</i>
    <i name="KSPACING">      0.50000000</i>
    <i type="logical" name="KGAMMA"> T  </i>
   </separator>
   <separator name="electronic projectors" >
    <i type="logical" name="LREAL"> F  </i>
    <v name="ROPT">      0.00000000      0.00000000</v>
    <i type="int" name="LMAXPAW">  -100</i>
    <i type="int" name="LMAXMIX">     2</i>
    <i type="logical" name="NLSPLINE"> F  </i>
   </separator>
   <separator name="electronic startup" >
    <i type="int" name="ISTART">     0</i>
    <i type="int" name="ICHARG">     2</i>
    <i type="int" name="INIWAV">     1</i>
   </separator>
   <separator name="electronic spin" >
    <i type="int" name="ISPIN">     1</i>
    <i type="logical" name="LNONCOLLINEAR"> F  </i>
    <v name="MAGMOM">      1.00000000      1.00000000</v>
    <i name="NUPDOWN">     -1.00000000</i>
    <i type="logical" name="LSORBIT"> F  </i>
    <v name="SAXIS">      0.00000000      0.00000000      1.00000000</v>
    <i type="logical" name="LSPIRAL"> F  </i>
    <v name="QSPIRAL">      0.00000000      0.00000000      0.00000000</v>
    <i type="logical" name="LZEROZ"> F  </i>
   </separator>
   <separator name="electronic exchange-correlation" >
    <i type="logical" name="LASPH"> F  </i>
    <i type="logical" name="LMETAGGA"> F  </i>
   </separator>
   <separator name="electronic convergence" >
    <i type="int" name="NELM">    60</i>
    <i type="int" name="NELMDL">    -5</i>
    <i type="int" name="NELMIN">     2</i>
    <i name="ENINI">    400.00000000</i>
    <separator name="electronic convergence detail" >
     <i type="logical" name="LDIAG"> T  </i>
     <i type="logical" name="LSUBROT"> F  </i>
     <i name="WEIMIN">      0.00100000</i>
     <i name="EBREAK">      0.00000003</i>
     <i name="DEPER">      0.30000000</i>
     <i type="int" name="NRMM">     4</i>
     <i name="TIME">      0.40000000</i>
    </separator>
   </separator>
   <separator name="electronic mixer" >
    <i name="AMIX">      0.40000000</i>
    <i name="BMIX">      1.00000000</i>
    <i name="AMIN">      0.10000000</i>
    <i name="AMIX_MAG">      1.60000000</i>
    <i name="BMIX_MAG">      1.00000000</i>
    <separator name="electronic mixer details" >
     <i type="int" name="IMIX">     4</i>
     <i type="int" name="MAXMIX">   -45</i>
     <i name="WC">    100.00000000</i>
     <i type="int" name="INIMIX">     1</i>
     <i type="int" name="MIXPRE">     1</i>
     <i type="int" name="MREMOVE">     5</i>
    </separator>
   </separator>
   <separator name="electronic dipolcorrection" >
    <i type="logical" name="LDIPOL"> F  </i>
    <i type="logical" name="LMONO"> F  </i>
    <i type="int" name="IDIPOL">     0</i>
    <i name="EPSILON">      1.00000000</i>
    <v name="DIPOL">   -100.00000000   -100.00000000   -100.00000000</v>
    <i name="EFIELD">      0.00000000</i>
   </separator>
  </separator>
  <separator name="grids" >
   <i type="int" name="NGX">    40</i>
   <i type="int" name="NGY">    40</i>
   <i type="int" name="NGZ">    40</i>
   <i type="int" name="NGXF">    80</i>
   <i type="int" name="NGYF">    80</i>
   <i type="int" name="NGZF">    80</i>
   <i type="logical" name="ADDGRID"> F  </i>
  </separator>
  <separator name="ionic" >
   <i type="int" name="NSW">    61</i>
   <i type="int" name="IBRION">     5</i>
   <i type="int" name="ISIF">     2</i>
   <i name="PSTRESS">      0.00000000</i>
   <i name="EDIFFG">      0.00001000</i>
   <i type="int" name="NFREE">     2</i>
   <i name="POTIM">      0.02000000</i>
   <i name="SMASS">     -3.00000000</i>
   <i name="SCALEE">      1.00000000</i>
  </separator>
  <separator name="ionic md" >
   <i name="TEBEG">      0.00010000</i>
   <i name="TEEND">      0.00010000</i>
   <i type="int" name="NBLOCK">     1</i>
   <i type="int" name="KBLOCK">     1</i>
   <i type="int" name="NPACO">   256</i>
   <i name="APACO">     16.00000000</i>
  </separator>
  <separator name="symmetry" >
   <i type="int" name="ISYM">     2</i>
   <i name="SYMPREC">      0.00001000</i>
  </separator>
  <separator name="dos" >
   <i type="logical" name="LORBIT"> F  </i>
   <v name="RWIGS">     -1.00000000     -1.00000000</v>
   <i type="int" name="NEDOS">   301</i>
   <i name="EMIN">     10.00000000</i>
   <i name="EMAX">    -10.00000000</i>
   <i name="EFERMI">      0.00000000</i>
  </separator>
  <separator name="writing" >
   <i type="int" name="NWRITE">     2</i>
   <i type="logical" name="LWAVE"> T  </i>
   <i type="logical" name="LCHARG"> T  </i>
   <i type="logical" name="LPARD"> F  </i>
   <i type="logical" name="LVTOT"> F  </i>
   <i type="logical" name="LVHAR"> F  </i>
   <i type="logical" name="LELF"> F  </i>
   <i type="logical" name="LOPTICS"> F  </i>
   <v name="STM">      0.00000000      0.00000000      0.00000000      0.00000000      0.00000000      0.00000000      0.00000000</v>
  </separator>
  <separator name="performance" >
   <i type="int" name="NPAR">     1</i>
   <i type="int" name="NSIM">     4</i>
   <i type="int" name="NBLK">    -1</i>
   <i type="logical" name="LPLANE"> T  </i>
   <i type="logical" name="LSCALAPACK"> F  </i>
   <i type="logical" name="LSCAAWARE"> F  </i>
   <i type="logical" name="LSCALU"> F  </i>
   <i type="logical" name="LASYNC"> F  </i>
   <i type="logical" name="LORBITALREAL"> F  </i>
  </separator>
  <separator name="miscellaneous" >
   <i type="int" name="IDIOT">     3</i>
   <i type="logical" name="LMUSIC"> F  </i>
   <v name="POMASS">     16.00000000     12.01100000</v>
   <v name="DARWINR">      0.00000000      0.00000000</v>
   <v name="DARWINV">      1.00000000      1.00000000</v>
   <i type="logical" name="LCORR"> T  </i>
  </separator>
  <i type="logical" name="GGA_COMPAT"> T  </i>
  <i type="logical" name="LBERRY"> F  </i>
  <i type="int" name="ICORELEVEL">     0</i>
  <i type="logical" name="LDAU"> F  </i>
  <i type="int" name="I_CONSTRAINED_M">     0</i>
  <separator name="electronic exchange-correlation" >
   <i type="string" name="GGA">--</i>
   <i type="int" name="VOSKOWN">     0</i>
   <i type="logical" name="LHFCALC"> F  </i>
   <i type="string" name="PRECFOCK"></i>
   <i type="logical" name="LSYMGRAD"> F  </i>
   <i type="logical" name="LHFONE"> F  </i>
   <i type="logical" name="LRHFCALC"> F  </i>
   <i type="logical" name="LTHOMAS"> F  </i>
   <i type="logical" name="LMODELHF"> F  </i>
   <i name="ENCUT4O">     -1.00000000</i>
   <i type="int" name="EXXOEP">     0</i>
   <i type="int" name="FOURORBIT">     0</i>
   <i name="AEXX">      0.00000000</i>
   <i name="HFALPHA">      0.00000000</i>
   <i name="MCALPHA">      0.00000000</i>
   <i name="ALDAX">      1.00000000</i>
   <i name="AGGAX">      1.00000000</i>
   <i name="ALDAC">      1.00000000</i>
   <i name="AGGAC">      1.00000000</i>
   <i type="int" name="NKREDX">     1</i>
   <i type="int" name="NKREDY">     1</i>
   <i type="int" name="NKREDZ">     1</i>
   <i type="logical" name="SHIFTRED"> F  </i>
   <i type="logical" name="ODDONLY"> F  </i>
   <i type="logical" name="EVENONLY"> F  </i>
   <i type="int" name="LMAXFOCK">     0</i>
   <i type="int" name="NMAXFOCKAE">     0</i>
   <i type="logical" name="LFOCKAEDFT"> F  </i>
   <i name="HFSCREEN">      0.00000000</i>
   <i name="HFSCREENC">      0.00000000</i>
   <i type="int" name="NBANDSGWLOW">     0</i>
  </separator>
  <separator name="vdW DFT" >
   <i type="logical" name="LUSE_VDW"> F  </i>
   <i name="Zab_VDW">     -0.84910000</i>
   <i name="PARAM1">      0.12340000</i>
   <i name="PARAM2">      1.00000000</i>
   <i name="PARAM3">      0.00000000</i>
  </separator>
  <separator name="model GW" >
   <i type="int" name="MODEL_GW">     0</i>
   <i name="MODEL_EPS0">    153.60000000</i>
   <i name="MODEL_ALPHA">      1.00000000</i>
  </separator>
  <separator name="linear response parameters" >
   <i type="logical" name="LEPSILON"> F  </i>
   <i type="logical" name="LRPA"> F  </i>
   <i type="logical" name="LNABLA"> F  </i>
   <i type="logical" name="LVEL"> F  </i>
   <i type="int" name="KINTER">     0</i>
   <i name="CSHIFT">      0.10000000</i>
   <i name="OMEGAMAX">     -1.00000000</i>
   <i name="DEG_THRESHOLD">      0.00200000</i>
  </separator>
  <separator name="orbital magnetization" >
   <i type="logical" name="NUCIND"> F  </i>
   <v name="MAGPOS">      0.00000000      0.00000000      0.00000000</v>
   <i type="logical" name="LNICSALL"> T  </i>
   <i type="logical" name="ORBITALMAG"> F  </i>
   <i type="logical" name="LMAGBLOCH"> F  </i>
   <i type="logical" name="LCHIMAG"> F  </i>
   <i type="logical" name="LGAUGE"> T  </i>
   <i type="int" name="MAGATOM">     0</i>
   <v name="MAGDIPOL">      0.00000000      0.00000000      0.00000000</v>
   <v name="AVECCONST">      0.00000000      0.00000000      0.00000000</v>
  </separator>
  <separator name="response functions" >
   <i type="logical" name="LADDER"> F  </i>
   <i type="logical" name="LFXC"> F  </i>
   <i type="logical" name="LHARTREE"> T  </i>
   <i type="int" name="IBSE">     0</i>
   <i type="logical" name="LTCTE"> F  </i>
   <i type="logical" name="LTETE"> F  </i>
   <i type="logical" name="LTRIPLET"> F  </i>
   <i type="logical" name="LFXCEPS"> F  </i>
   <i type="logical" name="LFXHEG"> F  </i>
   <i type="logical" name="L2ORDER"> F  </i>
   <i type="logical" name="LUSEW"> F  </i>
   <i name="ENCUTGW">     -2.00000000</i>
   <i name="ENCUTGWSOFT">     -2.00000000</i>
   <i name="ENCUTLF">     -1.00000000</i>
   <i type="int" name="LMAXMP2">    -1</i>
   <i name="SCISSOR">      0.00000000</i>
   <i type="int" name="NOMEGA">     0</i>
   <i type="int" name="NOMEGAR">     0</i>
   <i type="int" name="NBANDSGW">    -1</i>
   <i type="int" name="NBANDSO">    -1</i>
   <i type="int" name="NBANDSV">    -1</i>
   <i type="int" name="NELM">     1</i>
   <i type="int" name="DIM">     3</i>
   <i type="int" name="ANTIRES">     0</i>
   <i name="OMEGAMAX">    -30.00000000</i>
   <i name="OMEGAMIN">    -30.00000000</i>
   <i name="OMEGATL">   -200.00000000</i>
   <i type="int" name="OMEGAGRID">     0</i>
   <i name="CSHIFT">     -0.10000000</i>
   <i type="logical" name="SELFENERGY"> F  </i>
   <i type="logical" name="LSPECTRAL"> F  </i>
   <i type="logical" name="ODDONLYGW"> F  </i>
   <i type="logical" name="EVENONLYGW"> F  </i>
   <i type="int" name="NKREDLFX">     1</i>
   <i type="int" name="NKREDLFY">     1</i>
   <i type="int" name="NKREDLFZ">     1</i>
   <i type="int" name="MAXMEM">  1800</i>
   <i type="int" name="TELESCOPE">     0</i>
   <i type="int" name="TAUPAR">     1</i>
  </separator>
  <separator name="External order field" >
   <i name="OFIELD_KAPPA">      0.00000000</i>
   <v name="OFIELD_K">      0.00000000      0.00000000      0.00000000</v>
   <i name="OFIELD_Q6_NEAR">      0.00000000</i>
   <i name="OFIELD_Q6_FAR">      0.00000000</i>
   <i name="OFIELD_A">      0.00000000</i>
  </separator>
 </parameters>
 <atominfo>
  <atoms>       2 </atoms>
  <types>       2 </types>
  <array name="atoms" >
   <dimension dim="1">ion</dimension>
   <field type="string">element</field>
   <field type="int">atomtype</field>
   <set>
    <rc><c>O </c><c>   1</c></rc>
    <rc><c>C </c><c>   2</c></rc>
   </set>
  </array>
  <array name="atomtypes" >
   <dimension dim="1">type</dimension>
   <field type="int">atomspertype</field>
   <field type="string">element</field>
   <field>mass</field>
   <field>valence</field>
   <field type="string">pseudopotential</field>
   <set>
    <rc><c>   1</c><c>O </c><c>     16.00000000</c><c>      6.00000000</c><c>  PAW_PBE O 08Apr2002                   </c></rc>
    <rc><c>   1</c><c>C </c><c>     12.01100000</c><c>      4.00000000</c><c>  PAW_PBE C 08Apr2002                   </c></rc>
   </set>
  </array>
 </atominfo>
 <structure name="initialpos" >
  <crystal>
   <varray name="basis" >
    <v>       8.00000000       0.00000000       0.00000000 </v>
    <v>       0.00000000       8.00000000       0.00000000 </v>
    <v>       0.00000000       0.00000000       8.00000000 </v>
   </varray>
   <i name="volume">    512.00000000 </i>
   <varray name="rec_basis" >
    <v>       0.12500000       0.00000000       0.00000000 </v>
    <v>       0.00000000       0.12500000       0.00000000 </v>
    <v>       0.00000000       0.00000000       0.12500000 </v>
   </varray>
  </crystal>
  <varray name="positions" >
   <v>       0.00000000       0.00000000       0.00000000 </v>
   <v>       0.00000000       0.00000000       0.14287500 </v>
  </varray>
  <varray name="selective"  type="logical" >
   <v type="logical" >  F  F  T </v>
   <v type="logical" >  F  F  T </v>
  </varray>
  <nose>
   <v>      -3.00000000       0.00000000       0.00010000       0.00010000 </v>
  </nose>
 </structure>
 <calculation>
  <scstep>
   <time name="dav">    0.26    0.26</time>
   <time name="total">    0.86    0.86</time>
   <energy>
    <i name="alphaZ">      0.85343271 </i>
    <i name="ewald">     48.90784304 </i>
    <i name="hartreedc">   -512.54826799 </i>
    <i name="XCdc">     39.20132312 </i>
    <i name="pawpsdc">    455.07152327 </i>
    <i name="pawaedc">   -457.43959975 </i>
    <i name="eentropy">     -0.01852227 </i>
    <i name="bandstr">    -71.22128936 </i>
    <i name="atom">    579.39041991 </i>
    <i name="e_fr_energy">     82.19686269 </i>
    <i name="e_wo_entrp">     82.21538496 </i>
    <i name="e_0_energy">     82.20612383 </i>
   </energy>
  </scstep>
  <scstep>
   <time name="dav">    0.44    0.44</time>
   <time name="total">    0.44    0.44</time>
   <energy>
    <i name="e_fr_energy">     -1.69037424 </i>
    <i name="e_wo_entrp">     -1.69037424 </i>
    <i name="e_0_energy">     -1.69037424 </i>
   </energy>
  </scstep>
  <scstep>
   <time name="dav">    0.44    0.44</time>
   <time name="total">    0.44    0.44</time>
   <energy>
    <i name="e_fr_energy">    -15.50193669 </i>
    <i name="e_wo_entrp">    -15.50193669 </i>
    <i name="e_0_energy">    -15.50193669 </i>
   </energy>
  </scstep>
  <scstep>
   <time name="dav">    0.28    0.29</time>
   <time name="total">    0.28    0.29</time>
   <energy>
    <i name="e_fr_energy">    -15.59892583 </i>
    <i name="e_wo_entrp">    -15.59892583 </i>
    <i name="e_0_energy">    -15.59892583 </i>
   </energy>
  </scstep>
  <scstep>
   <time name="dav">    0.35    0.36</time>
   <time name="total">    0.45    0.46</time>
   <energy>
    <i name="e_fr_energy">    -15.59950942 </i>
    <i name="e_wo_entrp">    -15.59950942 </i>
    <i name="e_0_energy">    -15.59950942 </i>
   </energy>
  </scstep>
  <scstep>
   <time name="dav">    0.27    0.27</time>
   <time name="total">    0.95    0.96</time>
   <energy>
    <i name="e_fr_energy">    -14.96148471 </i>
    <i name="e_wo_entrp">    -14.96148471 </i>
    <i name="e_0_energy">    -14.96148471 </i>
   </energy>
  </scstep>
  <scstep>
   <time name="dav">    0.36    0.36</time>
   <time name="total">    1.06    1.07</time>
   <energy>
    <i name="e_fr_energy">    -14.83222006 </i>
    <i name="e_wo_entrp">    -14.83222006 </i>
    <i name="e_0_energy">    -14.83222006 </i>
   </energy>
  </scstep>
  <scstep>
   <time name="dav">    0.27    0.27</time>
   <time name="total">    0.97    0.98</time>
   <energy>
    <i name="e_fr_energy">    -14.79595937 </i>
    <i name="e_wo_entrp">    -14.79595937 </i>
    <i name="e_0_energy">    -14.79595937 </i>
   </energy>
  </scstep>
  <scstep>
   <time name="dav">    0.28    0.28</time>
   <time name="total">    0.99    0.99</time>
   <energy>
    <i name="e_fr_energy">    -14.79516040 </i>
    <i name="e_wo_entrp">    -14.79516040 </i>
    <i name="e_0_energy">    -14.79516040 </i>
   </energy>
  </scstep>
  <scstep>
   <time name="dav">    0.29    0.29</time>
   <time name="total">    0.96    0.98</time>
   <energy>
    <i name="e_fr_energy">    -14.79596717 </i>
    <i name="e_wo_entrp">    -14.79596717 </i>
    <i name="e_0_energy">    -14.79596717 </i>
   </energy>
  </scstep>
  <scstep>
   <time name="dav">    0.28    0.28</time>
   <time name="total">    0.94    0.99</time>
   <energy>
    <i name="e_fr_energy">    -14.79823328 </i>
    <i name="e_wo_entrp">    -14.79823328 </i>
    <i name="e_0_energy">    -14.79823328 </i>
   </energy>
  </scstep>
  <scstep>
   <time name="dav">    0.28    0.28</time>
   <time name="total">    0.97    0.97</time>
   <energy>
    <i name="e_fr_energy">    -14.79894224 </i>
    <i name="e_wo_entrp">    -14.79894224 </i>
    <i name="e_0_energy">    -14.79894224 </i>
   </energy>
  </scstep>
  <scstep>
   <time name="dav">    0.28    0.28</time>
   <time name="total">    0.95    0.95</time>
   <energy>
    <i name="e_fr_energy">    -14.79982181 </i>
    <i name="e_wo_entrp">    -14.79982181 </i>
    <i name="e_0_energy">    -14.79982181 </i>
   </energy>
  </scstep>
  <scstep>
   <time name="dav">    0.29    0.29</time>
   <time name="total">    0.98    0.98</time>
   <energy>
    <i name="e_fr_energy">    -14.79998488 </i>
    <i name="e_wo_entrp">    -14.79998488 </i>
    <i name="e_0_energy">    -14.79998488 </i>
   </energy>
  </scstep>
  <scstep>
   <time name="dav">    0.26    0.26</time>
   <time name="total">    0.94    0.94</time>
   <energy>
    <i name="e_fr_energy">    -14.80007135 </i>
    <i name="e_wo_entrp">    -14.80007135 </i>
    <i name="e_0_energy">    -14.80007135 </i>
   </energy>
  </scstep>
  <scstep>
   <time name="dav">    0.28    0.29</time>
   <time name="total">    0.98    0.99</time>
   <energy>
    <i name="e_fr_energy">    -14.80008405 </i>
    <i name="e_wo_entrp">    -14.80008405 </i>
    <i name="e_0_energy">    -14.80008405 </i>
   </energy>
  </scstep>
  <scstep>
   <time name="dav">    0.27    0.27</time>
   <time name="total">    0.97    0.98</time>
   <energy>
    <i name="e_fr_energy">    -14.80008806 </i>
    <i name="e_wo_entrp">    -14.80008806 </i>
    <i name="e_0_energy">    -14.80008806 </i>
   </energy>
  </scstep>
  <scstep>
   <time name="dav">    0.28    0.28</time>
   <time name="total">    0.90    0.91</time>
   <energy>
    <i name="alphaZ">      0.85343271 </i>
    <i name="ewald">     48.90784304 </i>
    <i name="hartreedc">   -533.01074019 </i>
    <i name="XCdc">     40.40977262 </i>
    <i name="pawpsdc">    863.16597543 </i>
    <i name="pawaedc">   -865.61953363 </i>
    <i name="eentropy">      0.00000000 </i>
    <i name="bandstr">   -148.89725871 </i>
    <i name="atom">    579.39041991 </i>
    <i name="e_fr_energy">    -14.80008881 </i>
    <i name="e_wo_entrp">    -14.80008881 </i>
    <i name="e_0_energy">    -14.80008881 </i>
   </energy>
  </scstep>
  <structure>
   <crystal>
    <varray name="basis" >
     <v>       8.00000000       0.00000000       0.00000000 </v>
     <v>       0.00000000       8.00000000       0.00000000 </v>
     <v>       0.00000000       0.00000000       8.00000000 </v>
    </varray>
    <i name="volume">    512.00000000 </i>
    <varray name="rec_basis" >
     <v>       0.12500000       0.00000000       0.00000000 </v>
     <v>       0.00000000       0.12500000       0.00000000 </v>
     <v>       0.00000000       0.00000000       0.12500000 </v>
    </varray>
   </crystal>
   <varray name="positions" >
    <v>       0.00000000       0.00000000       0.00000000 </v>
    <v>       0.00000000       0.00000000       0.14287500 </v>
   </varray>
  </structure>
  <varray name="forces" >
   <v>       0.00000000       0.00000000      -0.07641537 </v>
   <v>       0.00000000       0.00000000       0.07641537 </v>
  </varray>
  <varray name="stress" >
   <v>      -2.41279334       0.00000000       0.00000000 </v>
   <v>       0.00000000      -2.41279334       0.00000000 </v>
   <v>       0.00000000       0.00000000      -2.06359818 </v>
  </varray>
  <energy>
   <i name="e_fr_energy">    -14.80008881 </i>
   <i name="e_wo_entrp">    -14.80008881 </i>
   <i name="e_0_energy">      0.00000000 </i>
  </energy>
  <kpoints>
   <varray name="kpointlist" >
    <v>       0.00000000       0.00000000       0.00000000 </v>
   </varray>
   <varray name="weights" >
    <v>       1.00000000 </v>
   </varray>
  </kpoints>
  <time name="totalsc">   18.01   18.17</time>
 </calculation>
 <calculation>
  <scstep>
   <time name="dav">    0.27    0.27</time>
   <time name="total">    0.95    0.96</time>
   <energy>
    <i name="alphaZ">      0.85343271 </i>
    <i name="ewald">     54.22475701 </i>
    <i name="hartreedc">   -536.11396024 </i>
    <i name="XCdc">     40.50479451 </i>
    <i name="pawpsdc">    863.16090543 </i>
    <i name="pawaedc">   -865.61448538 </i>
    <i name="eentropy">      0.00000000 </i>
    <i name="bandstr">   -151.18058615 </i>
    <i name="atom">    579.39041991 </i>
    <i name="e_fr_energy">    -14.77472220 </i>
    <i name="e_wo_entrp">    -14.77472220 </i>
    <i name="e_0_energy">    -14.77472220 </i>
   </energy>
  </scstep>
  <scstep>
   <time name="dav">    0.26    0.26</time>
   <time name="total">    0.98    0.98</time>
   <energy>
    <i name="e_fr_energy">    -14.77538614 </i>
    <i name="e_wo_entrp">    -14.77538614 </i>
    <i name="e_0_energy">    -14.77538614 </i>
   </energy>
  </scstep>
  <scstep>
   <time name="dav">    0.28    0.28</time>
   <time name="total">    0.98    0.98</time>
   <energy>
    <i name="e_fr_energy">    -14.77431602 </i>
    <i name="e_wo_entrp">    -14.77431602 </i>
    <i name="e_0_energy">    -14.77431602 </i>
   </energy>
  </scstep>
  <scstep>
   <time name="dav">    0.37    0.38</time>
   <time name="total">    1.06    1.08</time>
   <energy>
    <i name="e_fr_energy">    -14.77433398 </i>
    <i name="e_wo_entrp">    -14.77433398 </i>
    <i name="e_0_energy">    -14.77433398 </i>
   </energy>
  </scstep>
  <scstep>
   <time name="dav">    0.26    0.26</time>
   <time name="total">    0.95    0.96</time>
   <energy>
    <i name="e_fr_energy">    -14.77434368 </i>
    <i name="e_wo_entrp">    -14.77434368 </i>
    <i name="e_0_energy">    -14.77434368 </i>
   </energy>
  </scstep>
  <scstep>
   <time name="dav">    0.26    0.26</time>
   <time name="total">    0.94    0.94</time>
   <energy>
    <i name="e_fr_energy">    -14.77436212 </i>
    <i name="e_wo_entrp">    -14.77436212 </i>
    <i name="e_0_energy">    -14.77436212 </i>
   </energy>
  </scstep>
  <scstep>
   <time name="dav">    0.28    0.28</time>
   <time name="total">    0.99    1.00</time>
   <energy>
    <i name="e_fr_energy">    -14.77438793 </i>
    <i name="e_wo_entrp">    -14.77438793 </i>
    <i name="e_0_energy">    -14.77438793 </i>
   </energy>
  </scstep>
  <scstep>
   <time name="dav">    0.28    0.28</time>
   <time name="total">    0.98    0.98</time>
   <energy>
    <i name="e_fr_energy">    -14.77440777 </i>
    <i name="e_wo_entrp">    -14.77440777 </i>
    <i name="e_0_energy">    -14.77440777 </i>
   </energy>
  </scstep>
  <scstep>
   <time name="dav">    0.28    0.28</time>
   <time name="total">    0.99    0.99</time>
   <energy>
    <i name="e_fr_energy">    -14.77442339 </i>
    <i name="e_wo_entrp">    -14.77442339 </i>
    <i name="e_0_energy">    -14.77442339 </i>
   </energy>
  </scstep>
  <scstep>
   <time name="dav">    0.28    0.28</time>
   <time name="total">    0.98    0.98</time>
   <energy>
    <i name="e_fr_energy">    -14.77442874 </i>
    <i name="e_wo_entrp">    -14.77442874 </i>
    <i name="e_0_energy">    -14.77442874 </i>
   </energy>
  </scstep>
  <scstep>
   <time name="dav">    0.27    0.27</time>
   <time name="total">    0.97    0.97</time>
   <energy>
    <i name="e_fr_energy">    -14.77443155 </i>
    <i name="e_wo_entrp">    -14.77443155 </i>
    <i name="e_0_energy">    -14.77443155 </i>
   </energy>
  </scstep>
  <scstep>
   <time name="dav">    0.28    0.28</time>
   <time name="total">    0.88    0.88</time>
   <energy>
    <i name="alphaZ">      0.85343271 </i>
    <i name="ewald">     54.22475701 </i>
    <i name="hartreedc">   -537.24310822 </i>
    <i name="XCdc">     40.56697592 </i>
    <i name="pawpsdc">    898.76807560 </i>
    <i name="pawaedc">   -901.25189769 </i>
    <i name="eentropy">      0.00000000 </i>
    <i name="bandstr">   -150.08308715 </i>
    <i name="atom">    579.39041991 </i>
    <i name="e_fr_energy">    -14.77443193 </i>
    <i name="e_wo_entrp">    -14.77443193 </i>
    <i name="e_0_energy">    -14.77443193 </i>
   </energy>
  </scstep>
  <structure>
   <crystal>
    <varray name="basis" >
     <v>       8.00000000       0.00000000       0.00000000 </v>
     <v>       0.00000000       8.00000000       0.00000000 </v>
     <v>       0.00000000       0.00000000       8.00000000 </v>
    </varray>
    <i name="volume">    512.00000000 </i>
    <varray name="rec_basis" >
     <v>       0.12500000       0.00000000       0.00000000 </v>
     <v>       0.00000000       0.12500000       0.00000000 </v>
     <v>       0.00000000       0.00000000       0.12500000 </v>
    </varray>
   </crystal>
   <varray name="positions" >
    <v>       0.00000000       0.00000000       0.00250000 </v>
    <v>       0.00000000       0.00000000       0.14287500 </v>
   </varray>
  </structure>
  <varray name="forces" >
   <v>       0.00000000       0.00000000      -2.53809526 </v>
   <v>       0.00000000       0.00000000       2.53809526 </v>
  </varray>
  <varray name="stress" >
   <v>      -2.40785773       0.00000000       0.00000000 </v>
   <v>       0.00000000      -2.40785773       0.00000000 </v>
   <v>       0.00000000       0.00000000       6.53476816 </v>
  </varray>
  <energy>
   <i name="e_fr_energy">    -14.77443193 </i>
   <i name="e_wo_entrp">    -14.77443193 </i>
   <i name="e_0_energy">      0.00000000 </i>
  </energy>
  <kpoints>
   <varray name="kpointlist" >
    <v>       0.00000000       0.00000000       0.00000000 </v>
   </varray>
   <varray name="weights" >
    <v>       1.00000000 </v>
   </varray>
  </kpoints>
  <time name="totalsc">   13.67   13.77</time>
 </calculation>
 <calculation>
  <scstep>
   <time name="dav">    0.28    0.28</time>
   <time name="total">    0.97    0.97</time>
   <energy>
    <i name="alphaZ">      0.85343271 </i>
    <i name="ewald">     43.77747250 </i>
    <i name="hartreedc">   -531.02131190 </i>
    <i name="XCdc">     40.37762628 </i>
    <i name="pawpsdc">    898.76630757 </i>
    <i name="pawaedc">   -901.25011648 </i>
    <i name="eentropy">      0.00000000 </i>
    <i name="bandstr">   -145.67685405 </i>
    <i name="atom">    579.39041991 </i>
    <i name="e_fr_energy">    -14.78302347 </i>
    <i name="e_wo_entrp">    -14.78302347 </i>
    <i name="e_0_energy">    -14.78302347 </i>
   </energy>
  </scstep>
  <scstep>
   <time name="dav">    0.27    0.27</time>
   <time name="total">    0.94    0.94</time>
   <energy>
    <i name="e_fr_energy">    -14.78265270 </i>
    <i name="e_wo_entrp">    -14.78265270 </i>
    <i name="e_0_energy">    -14.78265270 </i>
   </energy>
  </scstep>
  <scstep>
   <time name="dav">    0.36    0.36</time>
   <time name="total">    1.03    1.04</time>
   <energy>
    <i name="e_fr_energy">    -14.77933304 </i>
    <i name="e_wo_entrp">    -14.77933304 </i>
    <i name="e_0_energy">    -14.77933304 </i>
   </energy>
  </scstep>
  <scstep>
   <time name="dav">    0.28    0.28</time>
   <time name="total">    0.92    0.94</time>
   <energy>
    <i name="e_fr_energy">    -14.77941470 </i>
    <i name="e_wo_entrp">    -14.77941470 </i>
    <i name="e_0_energy">    -14.77941470 </i>
   </energy>
  </scstep>
  <scstep>
   <time name="dav">    0.26    0.27</time>
   <time name="total">    0.92    0.93</time>
   <energy>
    <i name="e_fr_energy">    -14.77947626 </i>
    <i name="e_wo_entrp">    -14.77947626 </i>
    <i name="e_0_energy">    -14.77947626 </i>
   </energy>
  </scstep>
  <scstep>
   <time name="dav">    0.29    0.29</time>
   <time name="total">    0.92    0.92</time>
   <energy>
    <i name="e_fr_energy">    -14.77955993 </i>
    <i name="e_wo_entrp">    -14.77955993 </i>
    <i name="e_0_energy">    -14.77955993 </i>
   </energy>
  </scstep>
  <scstep>
   <time name="dav">    0.27    0.28</time>
   <time name="total">    0.94    0.96</time>
   <energy>
    <i name="e_fr_energy">    -14.77961182 </i>
    <i name="e_wo_entrp">    -14.77961182 </i>
    <i name="e_0_energy">    -14.77961182 </i>
   </energy>
  </scstep>
  <scstep>
   <time name="dav">    0.26    0.26</time>
   <time name="total">    0.93    0.93</time>
   <energy>
    <i name="e_fr_energy">    -14.77967296 </i>
    <i name="e_wo_entrp">    -14.77967296 </i>
    <i name="e_0_energy">    -14.77967296 </i>
   </energy>
  </scstep>
  <scstep>
   <time name="dav">    0.28    0.29</time>
   <time name="total">    0.93    0.94</time>
   <energy>
    <i name="e_fr_energy">    -14.77970019 </i>
    <i name="e_wo_entrp">    -14.77970019 </i>
    <i name="e_0_energy">    -14.77970019 </i>
   </energy>
  </scstep>
  <scstep>
   <time name="dav">    0.26    0.26</time>
   <time name="total">    0.94    0.94</time>
   <energy>
    <i name="e_fr_energy">    -14.77970929 </i>
    <i name="e_wo_entrp">    -14.77970929 </i>
    <i name="e_0_energy">    -14.77970929 </i>
   </energy>
  </scstep>
  <scstep>
   <time name="dav">    0.28    0.28</time>
   <time name="total">    0.97    0.97</time>
   <energy>
    <i name="e_fr_energy">    -14.77971497 </i>
    <i name="e_wo_entrp">    -14.77971497 </i>
    <i name="e_0_energy">    -14.77971497 </i>
   </energy>
  </scstep>
  <scstep>
   <time name="dav">    0.28    0.28</time>
   <time name="total">    1.00    1.00</time>
   <energy>
    <i name="e_fr_energy">    -14.77971605 </i>
    <i name="e_wo_entrp">    -14.77971605 </i>
    <i name="e_0_energy">    -14.77971605 </i>
   </energy>
  </scstep>
  <scstep>
   <time name="dav">    0.26    0.27</time>
   <time name="total">    0.89    0.90</time>
   <energy>
    <i name="alphaZ">      0.85343271 </i>
    <i name="ewald">     43.77747250 </i>
    <i name="hartreedc">   -528.89357727 </i>
    <i name="XCdc">     40.25825897 </i>
    <i name="pawpsdc">    829.81385600 </i>
    <i name="pawaedc">   -832.24015732 </i>
    <i name="eentropy">      0.00000000 </i>
    <i name="bandstr">   -147.73942189 </i>
    <i name="atom">    579.39041991 </i>
    <i name="e_fr_energy">    -14.77971639 </i>
    <i name="e_wo_entrp">    -14.77971639 </i>
    <i name="e_0_energy">    -14.77971639 </i>
   </energy>
  </scstep>
  <structure>
   <crystal>
    <varray name="basis" >
     <v>       8.00000000       0.00000000       0.00000000 </v>
     <v>       0.00000000       8.00000000       0.00000000 </v>
     <v>       0.00000000       0.00000000       8.00000000 </v>
    </varray>
    <i name="volume">    512.00000000 </i>
    <varray name="rec_basis" >
     <v>       0.12500000       0.00000000       0.00000000 </v>
     <v>       0.00000000       0.12500000       0.00000000 </v>
     <v>       0.00000000       0.00000000       0.12500000 </v>
    </varray>
   </crystal>
   <varray name="positions" >
    <v>       0.00000000       0.00000000      -0.00250000 </v>
    <v>       0.00000000       0.00000000       0.14287500 </v>
   </varray>
  </structure>
  <varray name="forces" >
   <v>       0.00000000       0.00000000       2.05679610 </v>
   <v>       0.00000000       0.00000000      -2.05679610 </v>
  </varray>
  <varray name="stress" >
   <v>      -2.41843423       0.00000000       0.00000000 </v>
   <v>       0.00000000      -2.41843423       0.00000000 </v>
   <v>       0.00000000       0.00000000      -9.76467531 </v>
  </varray>
  <energy>
   <i name="e_fr_energy">    -14.77971639 </i>
   <i name="e_wo_entrp">    -14.77971639 </i>
   <i name="e_0_energy">      0.00000000 </i>
  </energy>
  <kpoints>
   <varray name="kpointlist" >
    <v>       0.00000000       0.00000000       0.00000000 </v>
   </varray>
   <varray name="weights" >
    <v>       1.00000000 </v>
   </varray>
  </kpoints>
  <time name="totalsc">   14.32   14.44</time>
 </calculation>
 <calculation>
  <scstep>
   <time name="dav">    0.26    0.26</time>
   <time name="total">    0.94    0.94</time>
   <energy>
    <i name="alphaZ">      0.85343271 </i>
    <i name="ewald">     43.77747250 </i>
    <i name="hartreedc">   -528.94498265 </i>
    <i name="XCdc">     40.26487858 </i>
    <i name="pawpsdc">    829.81437544 </i>
    <i name="pawaedc">   -832.24067730 </i>
    <i name="eentropy">      0.00000000 </i>
    <i name="bandstr">   -147.69257029 </i>
    <i name="atom">    579.39041991 </i>
    <i name="e_fr_energy">    -14.77765111 </i>
    <i name="e_wo_entrp">    -14.77765111 </i>
    <i name="e_0_energy">    -14.77765111 </i>
   </energy>
  </scstep>
  <scstep>
   <time name="dav">    0.26    0.26</time>
   <time name="total">    0.94    0.94</time>
   <energy>
    <i name="e_fr_energy">    -14.77968063 </i>
    <i name="e_wo_entrp">    -14.77968063 </i>
    <i name="e_0_energy">    -14.77968063 </i>
   </energy>
  </scstep>
  <scstep>
   <time name="dav">    0.28    0.28</time>
   <time name="total">    0.97    0.98</time>
   <energy>
    <i name="e_fr_energy">    -14.77977548 </i>
    <i name="e_wo_entrp">    -14.77977548 </i>
    <i name="e_0_energy">    -14.77977548 </i>
   </energy>
  </scstep>
  <scstep>
   <time name="dav">    0.27    0.27</time>
   <time name="total">    0.95    0.97</time>
   <energy>
    <i name="e_fr_energy">    -14.77978707 </i>
    <i name="e_wo_entrp">    -14.77978707 </i>
    <i name="e_0_energy">    -14.77978707 </i>
   </energy>
  </scstep>
  <scstep>
   <time name="dav">    0.27    0.27</time>
   <time name="total">    0.93    0.93</time>
   <energy>
    <i name="e_fr_energy">    -14.77979040 </i>
    <i name="e_wo_entrp">    -14.77979040 </i>
    <i name="e_0_energy">    -14.77979040 </i>
   </energy>
  </scstep>
  <scstep>
   <time name="dav">    0.26    0.26</time>
   <time name="total">    0.83    0.83</time>
   <energy>
    <i name="alphaZ">      0.85343271 </i>
    <i name="ewald">     43.77747250 </i>
    <i name="hartreedc">   -528.88955341 </i>
    <i name="XCdc">     40.25807170 </i>
    <i name="pawpsdc">    829.78986759 </i>
    <i name="pawaedc">   -832.21609629 </i>
    <i name="eentropy">      0.00000000 </i>
    <i name="bandstr">   -147.74340601 </i>
    <i name="atom">    579.39041991 </i>
    <i name="e_fr_energy">    -14.77979131 </i>
    <i name="e_wo_entrp">    -14.77979131 </i>
    <i name="e_0_energy">    -14.77979131 </i>
   </energy>
  </scstep>
  <structure>
   <crystal>
    <varray name="basis" >
     <v>       8.00000000       0.00000000       0.00000000 </v>
     <v>       0.00000000       8.00000000       0.00000000 </v>
     <v>       0.00000000       0.00000000       8.00000000 </v>
    </varray>
    <i name="volume">    512.00000000 </i>
    <varray name="rec_basis" >
     <v>       0.12500000       0.00000000       0.00000000 </v>
     <v>       0.00000000       0.12500000       0.00000000 </v>
     <v>       0.00000000       0.00000000       0.12500000 </v>
    </varray>
   </crystal>
   <varray name="positions" >
    <v>       0.00000000       0.00000000       0.00000000 </v>
    <v>       0.00000000       0.00000000       0.14537500 </v>
   </varray>
  </structure>
  <varray name="forces" >
   <v>       0.00000000       0.00000000       2.05219069 </v>
   <v>       0.00000000       0.00000000      -2.05219069 </v>
  </varray>
  <varray name="stress" >
   <v>      -2.40744411       0.00000000       0.00000000 </v>
   <v>       0.00000000      -2.40744411       0.00000000 </v>
   <v>       0.00000000       0.00000000      -9.74804673 </v>
  </varray>
  <energy>
   <i name="e_fr_energy">    -14.77979131 </i>
   <i name="e_wo_entrp">    -14.77979131 </i>
   <i name="e_0_energy">      0.00000000 </i>
  </energy>
  <kpoints>
   <varray name="kpointlist" >
    <v>       0.00000000       0.00000000       0.00000000 </v>
   </varray>
   <varray name="weights" >
    <v>       1.00000000 </v>
   </varray>
  </kpoints>
  <time name="totalsc">    7.58    7.60</time>
 </calculation>
 <calculation>
  <scstep>
   <time name="dav">    0.26    0.27</time>
   <time name="total">    0.96    0.96</time>
   <energy>
    <i name="alphaZ">      0.85343271 </i>
    <i name="ewald">     54.22475701 </i>
    <i name="hartreedc">   -534.92344384 </i>
    <i name="XCdc">     40.43058815 </i>
    <i name="pawpsdc">    829.83068576 </i>
    <i name="pawaedc">   -832.25691005 </i>
    <i name="eentropy">      0.00000000 </i>
    <i name="bandstr">   -152.33367771 </i>
    <i name="atom">    579.39041991 </i>
    <i name="e_fr_energy">    -14.78414807 </i>
    <i name="e_wo_entrp">    -14.78414807 </i>
    <i name="e_0_energy">    -14.78414807 </i>
   </energy>
  </scstep>
  <scstep>
   <time name="dav">    0.26    0.26</time>
   <time name="total">    0.97    0.97</time>
   <energy>
    <i name="e_fr_energy">    -14.77716935 </i>
    <i name="e_wo_entrp">    -14.77716935 </i>
    <i name="e_0_energy">    -14.77716935 </i>
   </energy>
  </scstep>
  <scstep>
   <time name="dav">    0.27    0.27</time>
   <time name="total">    0.96    0.96</time>
   <energy>
    <i name="e_fr_energy">    -14.77438533 </i>
    <i name="e_wo_entrp">    -14.77438533 </i>
    <i name="e_0_energy">    -14.77438533 </i>
   </energy>
  </scstep>
  <scstep>
   <time name="dav">    0.27    0.27</time>
   <time name="total">    0.95    0.95</time>
   <energy>
    <i name="e_fr_energy">    -14.77425391 </i>
    <i name="e_wo_entrp">    -14.77425391 </i>
    <i name="e_0_energy">    -14.77425391 </i>
   </energy>
  </scstep>
  <scstep>
   <time name="dav">    0.26    0.26</time>
   <time name="total">    0.91    0.91</time>
   <energy>
    <i name="e_fr_energy">    -14.77430615 </i>
    <i name="e_wo_entrp">    -14.77430615 </i>
    <i name="e_0_energy">    -14.77430615 </i>
   </energy>
  </scstep>
  <scstep>
   <time name="dav">    0.28    0.28</time>
   <time name="total">    0.95    0.97</time>
   <energy>
    <i name="e_fr_energy">    -14.77436958 </i>
    <i name="e_wo_entrp">    -14.77436958 </i>
    <i name="e_0_energy">    -14.77436958 </i>
   </energy>
  </scstep>
  <scstep>
   <time name="dav">    0.28    0.28</time>
   <time name="total">    0.94    0.94</time>
   <energy>
    <i name="e_fr_energy">    -14.77447235 </i>
    <i name="e_wo_entrp">    -14.77447235 </i>
    <i name="e_0_energy">    -14.77447235 </i>
   </energy>
  </scstep>
  <scstep>
   <time name="dav">    0.27    0.27</time>
   <time name="total">    0.94    0.94</time>
   <energy>
    <i name="e_fr_energy">    -14.77454223 </i>
    <i name="e_wo_entrp">    -14.77454223 </i>
    <i name="e_0_energy">    -14.77454223 </i>
   </energy>
  </scstep>
  <scstep>
   <time name="dav">    0.27    0.27</time>
   <time name="total">    0.95    0.95</time>
   <energy>
    <i name="e_fr_energy">    -14.77459404 </i>
    <i name="e_wo_entrp">    -14.77459404 </i>
    <i name="e_0_energy">    -14.77459404 </i>
   </energy>
  </scstep>
  <scstep>
   <time name="dav">    0.26    0.26</time>
   <time name="total">    0.93    0.93</time>
   <energy>
    <i name="e_fr_energy">    -14.77461073 </i>
    <i name="e_wo_entrp">    -14.77461073 </i>
    <i name="e_0_energy">    -14.77461073 </i>
   </energy>
  </scstep>
  <scstep>
   <time name="dav">    0.28    0.29</time>
   <time name="total">    0.98    1.02</time>
   <energy>
    <i name="e_fr_energy">    -14.77461485 </i>
    <i name="e_wo_entrp">    -14.77461485 </i>
    <i name="e_0_energy">    -14.77461485 </i>
   </energy>
  </scstep>
  <scstep>
   <time name="dav">    0.28    0.28</time>
   <time name="total">    0.88    0.90</time>
   <energy>
    <i name="alphaZ">      0.85343271 </i>
    <i name="ewald">     54.22475701 </i>
    <i name="hartreedc">   -537.24353663 </i>
    <i name="XCdc">     40.56698823 </i>
    <i name="pawpsdc">    898.71982864 </i>
    <i name="pawaedc">   -901.20370828 </i>
    <i name="eentropy">      0.00000000 </i>
    <i name="bandstr">   -150.08279741 </i>
    <i name="atom">    579.39041991 </i>
    <i name="e_fr_energy">    -14.77461583 </i>
    <i name="e_wo_entrp">    -14.77461583 </i>
    <i name="e_0_energy">    -14.77461583 </i>
   </energy>
  </scstep>
  <structure>
   <crystal>
    <varray name="basis" >
     <v>       8.00000000       0.00000000       0.00000000 </v>
     <v>       0.00000000       8.00000000       0.00000000 </v>
     <v>       0.00000000       0.00000000       8.00000000 </v>
    </varray>
    <i name="volume">    512.00000000 </i>
    <varray name="rec_basis" >
     <v>       0.12500000       0.00000000       0.00000000 </v>
     <v>       0.00000000       0.12500000       0.00000000 </v>
     <v>       0.00000000       0.00000000       0.12500000 </v>
    </varray>
   </crystal>
   <varray name="positions" >
    <v>       0.00000000       0.00000000       0.00000000 </v>
    <v>       0.00000000       0.00000000       0.14037500 </v>
   </varray>
  </structure>
  <varray name="forces" >
   <v>       0.00000000       0.00000000      -2.53115523 </v>
   <v>       0.00000000       0.00000000       2.53115523 </v>
  </varray>
  <varray name="stress" >
   <v>      -2.40849379       0.00000000       0.00000000 </v>
   <v>       0.00000000      -2.40849379       0.00000000 </v>
   <v>       0.00000000       0.00000000       6.51200848 </v>
  </varray>
  <energy>
   <i name="e_fr_energy">    -14.77461583 </i>
   <i name="e_wo_entrp">    -14.77461583 </i>
   <i name="e_0_energy">      0.00000000 </i>
  </energy>
  <dynmat>
   <varray name="hessian" >
    <v>      -7.17951775       8.27598547 </v>
    <v>       8.27598547      -9.53989244 </v>
   </varray>
   <v name="eigenvalues"> -1.67194167E+01  6.48217065E-06</v>
   <varray name="eigenvectors" >
    <v>  -6.55295504E-01  7.55372625E-01</v>
    <v>  -7.55372625E-01 -6.55295504E-01</v>
   </varray>
  </dynmat>
  <kpoints>
   <varray name="kpointlist" >
    <v>       0.00000000       0.00000000       0.00000000 </v>
   </varray>
   <varray name="weights" >
    <v>       1.00000000 </v>
   </varray>
  </kpoints>
  <time name="totalsc">   13.14   13.26</time>
  <eigenvalues>
   <array>
    <dimension dim="1">band</dimension>
    <dimension dim="2">kpoint</dimension>
    <dimension dim="3">spin</dimension>
    <field>eigene</field>
    <field>occ</field>
    <set>
     <set comment="spin 1">
      <set comment="kpoint 1">
       <r>  -29.2832    1.0000 </r>
       <r>  -13.7489    1.0000 </r>
       <r>  -11.6444    1.0000 </r>
       <r>  -11.6444    1.0000 </r>
       <r>   -8.7206    1.0000 </r>
       <r>   -1.6595    0.0000 </r>
       <r>   -1.6595    0.0000 </r>
       <r>   -0.2581    0.0000 </r>
       <r>    1.7019    0.0000 </r>
      </set>
     </set>
    </set>
   </array>
  </eigenvalues>
  <separator name="orbital magnetization" >
   <v name="MAGDIPOLOUT">      0.00000000      0.00000000      0.00000000</v>
  </separator>
  <dos>
   <i name="efermi">     -7.72566339 </i>
   <total>
    <array>
     <dimension dim="1">gridpoints</dimension>
     <dimension dim="2">spin</dimension>
     <field>energy</field>
     <field>total</field>
     <field>integrated</field>
     <set>
      <set comment="spin 1">
       <r>   -31.2832     0.0000     0.0000 </r>
       <r>   -31.1666     0.0000     0.0000 </r>
       <r>   -31.0500     0.0000     0.0000 </r>
       <r>   -30.9333     0.0000     0.0000 </r>
       <r>   -30.8167     0.0000     0.0000 </r>
       <r>   -30.7001     0.0000     0.0000 </r>
       <r>   -30.5835     0.0000     0.0000 </r>
       <r>   -30.4669     0.0000     0.0000 </r>
       <r>   -30.3503     0.0000     0.0000 </r>
       <r>   -30.2336     0.0000     0.0000 </r>
       <r>   -30.1170     0.0000     0.0000 </r>
       <r>   -30.0004     0.0000     0.0000 </r>
       <r>   -29.8838     0.0002     0.0000 </r>
       <r>   -29.7672     0.0051     0.0006 </r>
       <r>   -29.6506     0.0752     0.0094 </r>
       <r>   -29.5339     0.5731     0.0762 </r>
       <r>   -29.4173     2.2869     0.3429 </r>
       <r>   -29.3007     4.7895     0.9014 </r>
       <r>   -29.1841     5.2746     1.5166 </r>
       <r>   -29.0675     3.0551     1.8728 </r>
       <r>   -28.9509     0.9295     1.9812 </r>
       <r>   -28.8342     0.1481     1.9985 </r>
       <r>   -28.7176     0.0123     1.9999 </r>
       <r>   -28.6010     0.0005     2.0000 </r>
       <r>   -28.4844     0.0000     2.0000 </r>
       <r>   -28.3678     0.0000     2.0000 </r>
       <r>   -28.2512     0.0000     2.0000 </r>
       <r>   -28.1345     0.0000     2.0000 </r>
       <r>   -28.0179     0.0000     2.0000 </r>
       <r>   -27.9013     0.0000     2.0000 </r>
       <r>   -27.7847     0.0000     2.0000 </r>
       <r>   -27.6681     0.0000     2.0000 </r>
       <r>   -27.5515     0.0000     2.0000 </r>
       <r>   -27.4348     0.0000     2.0000 </r>
       <r>   -27.3182     0.0000     2.0000 </r>
       <r>   -27.2016     0.0000     2.0000 </r>
       <r>   -27.0850     0.0000     2.0000 </r>
       <r>   -26.9684     0.0000     2.0000 </r>
       <r>   -26.8518     0.0000     2.0000 </r>
       <r>   -26.7351     0.0000     2.0000 </r>
       <r>   -26.6185     0.0000     2.0000 </r>
       <r>   -26.5019     0.0000     2.0000 </r>
       <r>   -26.3853     0.0000     2.0000 </r>
       <r>   -26.2687     0.0000     2.0000 </r>
       <r>   -26.1520     0.0000     2.0000 </r>
       <r>   -26.0354     0.0000     2.0000 </r>
       <r>   -25.9188     0.0000     2.0000 </r>
       <r>   -25.8022     0.0000     2.0000 </r>
       <r>   -25.6856     0.0000     2.0000 </r>
       <r>   -25.5690     0.0000     2.0000 </r>
       <r>   -25.4523     0.0000     2.0000 </r>
       <r>   -25.3357     0.0000     2.0000 </r>
       <r>   -25.2191     0.0000     2.0000 </r>
       <r>   -25.1025     0.0000     2.0000 </r>
       <r>   -24.9859     0.0000     2.0000 </r>
       <r>   -24.8693     0.0000     2.0000 </r>
       <r>   -24.7526     0.0000     2.0000 </r>
       <r>   -24.6360     0.0000     2.0000 </r>
       <r>   -24.5194     0.0000     2.0000 </r>
       <r>   -24.4028     0.0000     2.0000 </r>
       <r>   -24.2862     0.0000     2.0000 </r>
       <r>   -24.1696     0.0000     2.0000 </r>
       <r>   -24.0529     0.0000     2.0000 </r>
       <r>   -23.9363     0.0000     2.0000 </r>
       <r>   -23.8197     0.0000     2.0000 </r>
       <r>   -23.7031     0.0000     2.0000 </r>
       <r>   -23.5865     0.0000     2.0000 </r>
       <r>   -23.4699     0.0000     2.0000 </r>
       <r>   -23.3532     0.0000     2.0000 </r>
       <r>   -23.2366     0.0000     2.0000 </r>
       <r>   -23.1200     0.0000     2.0000 </r>
       <r>   -23.0034     0.0000     2.0000 </r>
       <r>   -22.8868     0.0000     2.0000 </r>
       <r>   -22.7702     0.0000     2.0000 </r>
       <r>   -22.6535     0.0000     2.0000 </r>
       <r>   -22.5369     0.0000     2.0000 </r>
       <r>   -22.4203     0.0000     2.0000 </r>
       <r>   -22.3037     0.0000     2.0000 </r>
       <r>   -22.1871     0.0000     2.0000 </r>
       <r>   -22.0705     0.0000     2.0000 </r>
       <r>   -21.9538     0.0000     2.0000 </r>
       <r>   -21.8372     0.0000     2.0000 </r>
       <r>   -21.7206     0.0000     2.0000 </r>
       <r>   -21.6040     0.0000     2.0000 </r>
       <r>   -21.4874     0.0000     2.0000 </r>
       <r>   -21.3708     0.0000     2.0000 </r>
       <r>   -21.2541     0.0000     2.0000 </r>
       <r>   -21.1375     0.0000     2.0000 </r>
       <r>   -21.0209     0.0000     2.0000 </r>
       <r>   -20.9043     0.0000     2.0000 </r>
       <r>   -20.7877     0.0000     2.0000 </r>
       <r>   -20.6711     0.0000     2.0000 </r>
       <r>   -20.5544     0.0000     2.0000 </r>
       <r>   -20.4378     0.0000     2.0000 </r>
       <r>   -20.3212     0.0000     2.0000 </r>
       <r>   -20.2046     0.0000     2.0000 </r>
       <r>   -20.0880     0.0000     2.0000 </r>
       <r>   -19.9714     0.0000     2.0000 </r>
       <r>   -19.8547     0.0000     2.0000 </r>
       <r>   -19.7381     0.0000     2.0000 </r>
       <r>   -19.6215     0.0000     2.0000 </r>
       <r>   -19.5049     0.0000     2.0000 </r>
       <r>   -19.3883     0.0000     2.0000 </r>
       <r>   -19.2717     0.0000     2.0000 </r>
       <r>   -19.1550     0.0000     2.0000 </r>
       <r>   -19.0384     0.0000     2.0000 </r>
       <r>   -18.9218     0.0000     2.0000 </r>
       <r>   -18.8052     0.0000     2.0000 </r>
       <r>   -18.6886     0.0000     2.0000 </r>
       <r>   -18.5719     0.0000     2.0000 </r>
       <r>   -18.4553     0.0000     2.0000 </r>
       <r>   -18.3387     0.0000     2.0000 </r>
       <r>   -18.2221     0.0000     2.0000 </r>
       <r>   -18.1055     0.0000     2.0000 </r>
       <r>   -17.9889     0.0000     2.0000 </r>
       <r>   -17.8722     0.0000     2.0000 </r>
       <r>   -17.7556     0.0000     2.0000 </r>
       <r>   -17.6390     0.0000     2.0000 </r>
       <r>   -17.5224     0.0000     2.0000 </r>
       <r>   -17.4058     0.0000     2.0000 </r>
       <r>   -17.2892     0.0000     2.0000 </r>
       <r>   -17.1725     0.0000     2.0000 </r>
       <r>   -17.0559     0.0000     2.0000 </r>
       <r>   -16.9393     0.0000     2.0000 </r>
       <r>   -16.8227     0.0000     2.0000 </r>
       <r>   -16.7061     0.0000     2.0000 </r>
       <r>   -16.5895     0.0000     2.0000 </r>
       <r>   -16.4728     0.0000     2.0000 </r>
       <r>   -16.3562     0.0000     2.0000 </r>
       <r>   -16.2396     0.0000     2.0000 </r>
       <r>   -16.1230     0.0000     2.0000 </r>
       <r>   -16.0064     0.0000     2.0000 </r>
       <r>   -15.8898     0.0000     2.0000 </r>
       <r>   -15.7731     0.0000     2.0000 </r>
       <r>   -15.6565     0.0000     2.0000 </r>
       <r>   -15.5399     0.0000     2.0000 </r>
       <r>   -15.4233     0.0000     2.0000 </r>
       <r>   -15.3067     0.0000     2.0000 </r>
       <r>   -15.1901     0.0000     2.0000 </r>
       <r>   -15.0734     0.0000     2.0000 </r>
       <r>   -14.9568     0.0000     2.0000 </r>
       <r>   -14.8402     0.0000     2.0000 </r>
       <r>   -14.7236     0.0000     2.0000 </r>
       <r>   -14.6070     0.0000     2.0000 </r>
       <r>   -14.4904     0.0000     2.0000 </r>
       <r>   -14.3737     0.0001     2.0000 </r>
       <r>   -14.2571     0.0027     2.0003 </r>
       <r>   -14.1405     0.0454     2.0056 </r>
       <r>   -14.0239     0.3961     2.0518 </r>
       <r>   -13.9073     1.8082     2.2627 </r>
       <r>   -13.7907     4.3300     2.7676 </r>
       <r>   -13.6740     5.4508     3.4033 </r>
       <r>   -13.5574     3.6092     3.8242 </r>
       <r>   -13.4408     1.2557     3.9706 </r>
       <r>   -13.3242     0.2290     3.9973 </r>
       <r>   -13.2076     0.0218     3.9999 </r>
       <r>   -13.0910     0.0011     4.0000 </r>
       <r>   -12.9743     0.0000     4.0000 </r>
       <r>   -12.8577     0.0000     4.0000 </r>
       <r>   -12.7411     0.0000     4.0000 </r>
       <r>   -12.6245     0.0000     4.0000 </r>
       <r>   -12.5079     0.0000     4.0000 </r>
       <r>   -12.3913     0.0000     4.0000 </r>
       <r>   -12.2746     0.0001     4.0000 </r>
       <r>   -12.1580     0.0047     4.0006 </r>
       <r>   -12.0414     0.0809     4.0100 </r>
       <r>   -11.9248     0.7273     4.0948 </r>
       <r>   -11.8082     3.4203     4.4937 </r>
       <r>   -11.6915     8.4370     5.4776 </r>
       <r>   -11.5749    10.9399     6.7534 </r>
       <r>   -11.4583     7.4614     7.6235 </r>
       <r>   -11.3417     2.6742     7.9353 </r>
       <r>   -11.2251     0.5025     7.9939 </r>
       <r>   -11.1085     0.0493     7.9997 </r>
       <r>   -10.9918     0.0025     8.0000 </r>
       <r>   -10.8752     0.0001     8.0000 </r>
       <r>   -10.7586     0.0000     8.0000 </r>
       <r>   -10.6420     0.0000     8.0000 </r>
       <r>   -10.5254     0.0000     8.0000 </r>
       <r>   -10.4088     0.0000     8.0000 </r>
       <r>   -10.2921     0.0000     8.0000 </r>
       <r>   -10.1755     0.0000     8.0000 </r>
       <r>   -10.0589     0.0000     8.0000 </r>
       <r>    -9.9423     0.0000     8.0000 </r>
       <r>    -9.8257     0.0000     8.0000 </r>
       <r>    -9.7091     0.0000     8.0000 </r>
       <r>    -9.5924     0.0000     8.0000 </r>
       <r>    -9.4758     0.0000     8.0000 </r>
       <r>    -9.3592     0.0001     8.0000 </r>
       <r>    -9.2426     0.0019     8.0002 </r>
       <r>    -9.1260     0.0336     8.0041 </r>
       <r>    -9.0094     0.3172     8.0411 </r>
       <r>    -8.8927     1.5628     8.2234 </r>
       <r>    -8.7761     4.0385     8.6943 </r>
       <r>    -8.6595     5.4851     9.3340 </r>
       <r>    -8.5429     3.9186     9.7910 </r>
       <r>    -8.4263     1.4713     9.9626 </r>
       <r>    -8.3097     0.2897     9.9963 </r>
       <r>    -8.1930     0.0298     9.9998 </r>
       <r>    -8.0764     0.0016    10.0000 </r>
       <r>    -7.9598     0.0000    10.0000 </r>
       <r>    -7.8432     0.0000    10.0000 </r>
       <r>    -7.7266     0.0000    10.0000 </r>
       <r>    -7.6100     0.0000    10.0000 </r>
       <r>    -7.4933     0.0000    10.0000 </r>
       <r>    -7.3767     0.0000    10.0000 </r>
       <r>    -7.2601     0.0000    10.0000 </r>
       <r>    -7.1435     0.0000    10.0000 </r>
       <r>    -7.0269     0.0000    10.0000 </r>
       <r>    -6.9103     0.0000    10.0000 </r>
       <r>    -6.7936     0.0000    10.0000 </r>
       <r>    -6.6770     0.0000    10.0000 </r>
       <r>    -6.5604     0.0000    10.0000 </r>
       <r>    -6.4438     0.0000    10.0000 </r>
       <r>    -6.3272     0.0000    10.0000 </r>
       <r>    -6.2106     0.0000    10.0000 </r>
       <r>    -6.0939     0.0000    10.0000 </r>
       <r>    -5.9773     0.0000    10.0000 </r>
       <r>    -5.8607     0.0000    10.0000 </r>
       <r>    -5.7441     0.0000    10.0000 </r>
       <r>    -5.6275     0.0000    10.0000 </r>
       <r>    -5.5109     0.0000    10.0000 </r>
       <r>    -5.3942     0.0000    10.0000 </r>
       <r>    -5.2776     0.0000    10.0000 </r>
       <r>    -5.1610     0.0000    10.0000 </r>
       <r>    -5.0444     0.0000    10.0000 </r>
       <r>    -4.9278     0.0000    10.0000 </r>
       <r>    -4.8112     0.0000    10.0000 </r>
       <r>    -4.6945     0.0000    10.0000 </r>
       <r>    -4.5779     0.0000    10.0000 </r>
       <r>    -4.4613     0.0000    10.0000 </r>
       <r>    -4.3447     0.0000    10.0000 </r>
       <r>    -4.2281     0.0000    10.0000 </r>
       <r>    -4.1114     0.0000    10.0000 </r>
       <r>    -3.9948     0.0000    10.0000 </r>
       <r>    -3.8782     0.0000    10.0000 </r>
       <r>    -3.7616     0.0000    10.0000 </r>
       <r>    -3.6450     0.0000    10.0000 </r>
       <r>    -3.5284     0.0000    10.0000 </r>
       <r>    -3.4117     0.0000    10.0000 </r>
       <r>    -3.2951     0.0000    10.0000 </r>
       <r>    -3.1785     0.0000    10.0000 </r>
       <r>    -3.0619     0.0000    10.0000 </r>
       <r>    -2.9453     0.0000    10.0000 </r>
       <r>    -2.8287     0.0000    10.0000 </r>
       <r>    -2.7120     0.0000    10.0000 </r>
       <r>    -2.5954     0.0000    10.0000 </r>
       <r>    -2.4788     0.0000    10.0000 </r>
       <r>    -2.3622     0.0000    10.0000 </r>
       <r>    -2.2456     0.0006    10.0001 </r>
       <r>    -2.1290     0.0149    10.0018 </r>
       <r>    -2.0123     0.2006    10.0252 </r>
       <r>    -1.8957     1.4105    10.1897 </r>
       <r>    -1.7791     5.1936    10.7953 </r>
       <r>    -1.6625    10.0402    11.9662 </r>
       <r>    -1.5459    10.2072    13.1565 </r>
       <r>    -1.4293     5.4573    13.7930 </r>
       <r>    -1.3126     1.5321    13.9716 </r>
       <r>    -1.1960     0.2252    13.9979 </r>
       <r>    -1.0794     0.0173    13.9999 </r>
       <r>    -0.9628     0.0007    14.0000 </r>
       <r>    -0.8462     0.0003    14.0000 </r>
       <r>    -0.7296     0.0071    14.0009 </r>
       <r>    -0.6129     0.0965    14.0121 </r>
       <r>    -0.4963     0.6859    14.0921 </r>
       <r>    -0.3797     2.5535    14.3899 </r>
       <r>    -0.2631     4.9908    14.9719 </r>
       <r>    -0.1465     5.1297    15.5701 </r>
       <r>    -0.0299     2.7729    15.8935 </r>
       <r>     0.0868     0.7871    15.9853 </r>
       <r>     0.2034     0.1170    15.9989 </r>
       <r>     0.3200     0.0091    16.0000 </r>
       <r>     0.4366     0.0004    16.0000 </r>
       <r>     0.5532     0.0000    16.0000 </r>
       <r>     0.6698     0.0000    16.0000 </r>
       <r>     0.7865     0.0000    16.0000 </r>
       <r>     0.9031     0.0000    16.0000 </r>
       <r>     1.0197     0.0000    16.0000 </r>
       <r>     1.1363     0.0005    16.0001 </r>
       <r>     1.2529     0.0123    16.0015 </r>
       <r>     1.3695     0.1481    16.0188 </r>
       <r>     1.4862     0.9295    16.1272 </r>
       <r>     1.6028     3.0551    16.4834 </r>
       <r>     1.7194     5.2746    17.0986 </r>
       <r>     1.8360     4.7895    17.6571 </r>
       <r>     1.9526     2.2869    17.9238 </r>
       <r>     2.0692     0.5731    17.9906 </r>
       <r>     2.1859     0.0752    17.9994 </r>
       <r>     2.3025     0.0051    18.0000 </r>
       <r>     2.4191     0.0002    18.0000 </r>
       <r>     2.5357     0.0000    18.0000 </r>
       <r>     2.6523     0.0000    18.0000 </r>
       <r>     2.7689     0.0000    18.0000 </r>
       <r>     2.8856     0.0000    18.0000 </r>
       <r>     3.0022     0.0000    18.0000 </r>
       <r>     3.1188     0.0000    18.0000 </r>
       <r>     3.2354     0.0000    18.0000 </r>
       <r>     3.3520     0.0000    18.0000 </r>
       <r>     3.4687     0.0000    18.0000 </r>
       <r>     3.5853     0.0000    18.0000 </r>
       <r>     3.7019     0.0000    18.0000 </r>
      </set>
     </set>
    </array>
   </total>
  </dos>
 </calculation>
 <structure name="finalpos" >
  <crystal>
   <varray name="basis" >
    <v>       8.00000000       0.00000000       0.00000000 </v>
    <v>       0.00000000       8.00000000       0.00000000 </v>
    <v>       0.00000000       0.00000000       8.00000000 </v>
   </varray>
   <i name="volume">    512.00000000 </i>
   <varray name="rec_basis" >
    <v>       0.12500000       0.00000000       0.00000000 </v>
    <v>       0.00000000       0.12500000       0.00000000 </v>
    <v>       0.00000000       0.00000000       0.12500000 </v>
   </varray>
  </crystal>
  <varray name="positions" >
   <v>       0.00000000       0.00000000       0.00000000 </v>
   <v>       0.00000000       0.00000000       0.14037500 </v>
  </varray>
  <varray name="selective"  type="logical" >
   <v type="logical" >  F  F  T </v>
   <v type="logical" >  F  F  T </v>
  </varray>
  <nose>
   <v>      -3.00000000       0.00000000       0.00010000       0.00010000 </v>
  </nose>
 </structure>
</modeling>
