unknown system                          
           1
     8.000000    0.000000    0.000000
     0.000000    8.000000    0.000000
     0.000000    0.000000    8.000000
   O    C 
   1   1
Direct configuration=     1
   0.00000000  0.00000000  0.00000000
   0.00000000  0.00000000  0.14287500
Direct configuration=     2
   0.00000000  0.00000000  0.00250000
   0.00000000  0.00000000  0.14287500
Direct configuration=     3
   0.00000000  0.00000000 -0.00250000
   0.00000000  0.00000000  0.14287500
Direct configuration=     4
   0.00000000  0.00000000  0.00000000
   0.00000000  0.00000000  0.14537500
Direct configuration=     5
   0.00000000  0.00000000  0.00000000
   0.00000000  0.00000000  0.14037500
