   2   2   1   0
  0.2560000E+03  0.8000000E-09  0.8000000E-09  0.8000000E-09  0.5000000E-15
  1.000000000000000E-004
  CAR 
 CO partial DOS                          
      3.69366187    -30.98667595  301     -7.74994648      1.00000000
    -30.987  0.0000E+00  0.0000E+00
    -30.871  0.0000E+00  0.0000E+00
    -30.755  0.0000E+00  0.0000E+00
    -30.640  0.0000E+00  0.0000E+00
    -30.524  0.0000E+00  0.0000E+00
    -30.409  0.0000E+00  0.0000E+00
    -30.293  0.0000E+00  0.0000E+00
    -30.177  0.0000E+00  0.0000E+00
    -30.062  0.2507E-12  0.2898E-13
    -29.946  0.9994E-10  0.1158E-10
    -29.831  0.2069E-07  0.2403E-08
    -29.715  0.2227E-05  0.2598E-06
    -29.599  0.1250E-03  0.1471E-04
    -29.484  0.3668E-02  0.4387E-03
    -29.368  0.5651E-01  0.6971E-02
    -29.253  0.4587E+00  0.6000E-01
    -29.137  0.1969E+01  0.2876E+00
    -29.021  0.4482E+01  0.8057E+00
    -28.906  0.5420E+01  0.1432E+01
    -28.790  0.3484E+01  0.1835E+01
    -28.675  0.1189E+01  0.1973E+01
    -28.559  0.2151E+00  0.1998E+01
    -28.443  0.2054E-01  0.2000E+01
    -28.328  0.1032E-02  0.2000E+01
    -28.212  0.2716E-04  0.2000E+01
    -28.097  0.3736E-06  0.2000E+01
    -27.981  0.2676E-08  0.2000E+01
    -27.865  0.9955E-11  0.2000E+01
    -27.750  0.1921E-13  0.2000E+01
    -27.634  0.0000E+00  0.2000E+01
    -27.519  0.0000E+00  0.2000E+01
    -27.403  0.0000E+00  0.2000E+01
    -27.287  0.0000E+00  0.2000E+01
    -27.172  0.0000E+00  0.2000E+01
    -27.056  0.0000E+00  0.2000E+01
    -26.941  0.0000E+00  0.2000E+01
    -26.825  0.0000E+00  0.2000E+01
    -26.709  0.0000E+00  0.2000E+01
    -26.594  0.0000E+00  0.2000E+01
    -26.478  0.0000E+00  0.2000E+01
    -26.363  0.0000E+00  0.2000E+01
    -26.247  0.0000E+00  0.2000E+01
    -26.131  0.0000E+00  0.2000E+01
    -26.016  0.0000E+00  0.2000E+01
    -25.900  0.0000E+00  0.2000E+01
    -25.785  0.0000E+00  0.2000E+01
    -25.669  0.0000E+00  0.2000E+01
    -25.553  0.0000E+00  0.2000E+01
    -25.438  0.0000E+00  0.2000E+01
    -25.322  0.0000E+00  0.2000E+01
    -25.207  0.0000E+00  0.2000E+01
    -25.091  0.0000E+00  0.2000E+01
    -24.975  0.0000E+00  0.2000E+01
    -24.860  0.0000E+00  0.2000E+01
    -24.744  0.0000E+00  0.2000E+01
    -24.629  0.0000E+00  0.2000E+01
    -24.513  0.0000E+00  0.2000E+01
    -24.397  0.0000E+00  0.2000E+01
    -24.282  0.0000E+00  0.2000E+01
    -24.166  0.0000E+00  0.2000E+01
    -24.051  0.0000E+00  0.2000E+01
    -23.935  0.0000E+00  0.2000E+01
    -23.819  0.0000E+00  0.2000E+01
    -23.704  0.0000E+00  0.2000E+01
    -23.588  0.0000E+00  0.2000E+01
    -23.473  0.0000E+00  0.2000E+01
    -23.357  0.0000E+00  0.2000E+01
    -23.241  0.0000E+00  0.2000E+01
    -23.126  0.0000E+00  0.2000E+01
    -23.010  0.0000E+00  0.2000E+01
    -22.895  0.0000E+00  0.2000E+01
    -22.779  0.0000E+00  0.2000E+01
    -22.663  0.0000E+00  0.2000E+01
    -22.548  0.0000E+00  0.2000E+01
    -22.432  0.0000E+00  0.2000E+01
    -22.317  0.0000E+00  0.2000E+01
    -22.201  0.0000E+00  0.2000E+01
    -22.085  0.0000E+00  0.2000E+01
    -21.970  0.0000E+00  0.2000E+01
    -21.854  0.0000E+00  0.2000E+01
    -21.739  0.0000E+00  0.2000E+01
    -21.623  0.0000E+00  0.2000E+01
    -21.507  0.0000E+00  0.2000E+01
    -21.392  0.0000E+00  0.2000E+01
    -21.276  0.0000E+00  0.2000E+01
    -21.161  0.0000E+00  0.2000E+01
    -21.045  0.0000E+00  0.2000E+01
    -20.929  0.0000E+00  0.2000E+01
    -20.814  0.0000E+00  0.2000E+01
    -20.698  0.0000E+00  0.2000E+01
    -20.583  0.0000E+00  0.2000E+01
    -20.467  0.0000E+00  0.2000E+01
    -20.351  0.0000E+00  0.2000E+01
    -20.236  0.0000E+00  0.2000E+01
    -20.120  0.0000E+00  0.2000E+01
    -20.005  0.0000E+00  0.2000E+01
    -19.889  0.0000E+00  0.2000E+01
    -19.773  0.0000E+00  0.2000E+01
    -19.658  0.0000E+00  0.2000E+01
    -19.542  0.0000E+00  0.2000E+01
    -19.427  0.0000E+00  0.2000E+01
    -19.311  0.0000E+00  0.2000E+01
    -19.195  0.0000E+00  0.2000E+01
    -19.080  0.0000E+00  0.2000E+01
    -18.964  0.0000E+00  0.2000E+01
    -18.849  0.0000E+00  0.2000E+01
    -18.733  0.0000E+00  0.2000E+01
    -18.617  0.0000E+00  0.2000E+01
    -18.502  0.0000E+00  0.2000E+01
    -18.386  0.0000E+00  0.2000E+01
    -18.271  0.0000E+00  0.2000E+01
    -18.155  0.0000E+00  0.2000E+01
    -18.039  0.0000E+00  0.2000E+01
    -17.924  0.0000E+00  0.2000E+01
    -17.808  0.0000E+00  0.2000E+01
    -17.693  0.0000E+00  0.2000E+01
    -17.577  0.0000E+00  0.2000E+01
    -17.461  0.0000E+00  0.2000E+01
    -17.346  0.0000E+00  0.2000E+01
    -17.230  0.0000E+00  0.2000E+01
    -17.115  0.0000E+00  0.2000E+01
    -16.999  0.0000E+00  0.2000E+01
    -16.883  0.0000E+00  0.2000E+01
    -16.768  0.0000E+00  0.2000E+01
    -16.652  0.0000E+00  0.2000E+01
    -16.537  0.0000E+00  0.2000E+01
    -16.421  0.0000E+00  0.2000E+01
    -16.305  0.0000E+00  0.2000E+01
    -16.190  0.0000E+00  0.2000E+01
    -16.074  0.0000E+00  0.2000E+01
    -15.959  0.0000E+00  0.2000E+01
    -15.843  0.0000E+00  0.2000E+01
    -15.727  0.0000E+00  0.2000E+01
    -15.612  0.0000E+00  0.2000E+01
    -15.496  0.0000E+00  0.2000E+01
    -15.381  0.0000E+00  0.2000E+01
    -15.265  0.0000E+00  0.2000E+01
    -15.149  0.0000E+00  0.2000E+01
    -15.034  0.0000E+00  0.2000E+01
    -14.918  0.2881E-14  0.2000E+01
    -14.803  0.1762E-11  0.2000E+01
    -14.687  0.5721E-09  0.2000E+01
    -14.571  0.9642E-07  0.2000E+01
    -14.456  0.8456E-05  0.2000E+01
    -14.340  0.3870E-03  0.2000E+01
    -14.225  0.9275E-02  0.2001E+01
    -14.109  0.1168E+00  0.2015E+01
    -13.993  0.7761E+00  0.2104E+01
    -13.878  0.2729E+01  0.2420E+01
    -13.762  0.5093E+01  0.3009E+01
    -13.647  0.5051E+01  0.3592E+01
    -13.531  0.2662E+01  0.3900E+01
    -13.415  0.7447E+00  0.3986E+01
    -13.300  0.1102E+00  0.3999E+01
    -13.184  0.8607E-02  0.4000E+01
    -13.069  0.3531E-03  0.4000E+01
    -12.953  0.7586E-05  0.4000E+01
    -12.837  0.8504E-07  0.4000E+01
    -12.722  0.4960E-09  0.4000E+01
    -12.606  0.1515E-11  0.4000E+01
    -12.490  0.7975E-11  0.4000E+01
    -12.375  0.2370E-08  0.4000E+01
    -12.259  0.3657E-06  0.4000E+01
    -12.144  0.2938E-04  0.4000E+01
    -12.028  0.1232E-02  0.4000E+01
    -11.912  0.2708E-01  0.4003E+01
    -11.797  0.3129E+00  0.4039E+01
    -11.681  0.1908E+01  0.4260E+01
    -11.566  0.6159E+01  0.4972E+01
    -11.450  0.1056E+02  0.6192E+01
    -11.334  0.9615E+01  0.7304E+01
    -11.219  0.4654E+01  0.7842E+01
    -11.103  0.1195E+01  0.7980E+01
    -10.988  0.1624E+00  0.7999E+01
    -10.872  0.1163E-01  0.8000E+01
    -10.756  0.4374E-03  0.8000E+01
    -10.641  0.8611E-05  0.8000E+01
    -10.525  0.8842E-07  0.8000E+01
    -10.410  0.4722E-09  0.8000E+01
    -10.294  0.1310E-11  0.8000E+01
    -10.178  0.0000E+00  0.8000E+01
    -10.063  0.0000E+00  0.8000E+01
     -9.947  0.9604E-15  0.8000E+01
     -9.832  0.3880E-12  0.8000E+01
     -9.716  0.1479E-09  0.8000E+01
     -9.600  0.2926E-07  0.8000E+01
     -9.485  0.3009E-05  0.8000E+01
     -9.369  0.1614E-03  0.8000E+01
     -9.254  0.4529E-02  0.8001E+01
     -9.138  0.6674E-01  0.8008E+01
     -9.022  0.5182E+00  0.8068E+01
     -8.907  0.2128E+01  0.8314E+01
     -8.791  0.4635E+01  0.8850E+01
     -8.676  0.5365E+01  0.9470E+01
     -8.560  0.3301E+01  0.9852E+01
     -8.444  0.1078E+01  0.9976E+01
     -8.329  0.1865E+00  0.9998E+01
     -8.213  0.1703E-01  0.1000E+02
     -8.098  0.8181E-03  0.1000E+02
     -7.982  0.2059E-04  0.1000E+02
     -7.866  0.2707E-06  0.1000E+02
     -7.751  0.1852E-08  0.1000E+02
     -7.635  0.6584E-11  0.1000E+02
     -7.520  0.1152E-13  0.1000E+02
     -7.404  0.0000E+00  0.1000E+02
     -7.288  0.0000E+00  0.1000E+02
     -7.173  0.0000E+00  0.1000E+02
     -7.057  0.0000E+00  0.1000E+02
     -6.942  0.0000E+00  0.1000E+02
     -6.826  0.0000E+00  0.1000E+02
     -6.710  0.0000E+00  0.1000E+02
     -6.595  0.0000E+00  0.1000E+02
     -6.479  0.0000E+00  0.1000E+02
     -6.364  0.0000E+00  0.1000E+02
     -6.248  0.0000E+00  0.1000E+02
     -6.132  0.0000E+00  0.1000E+02
     -6.017  0.0000E+00  0.1000E+02
     -5.901  0.0000E+00  0.1000E+02
     -5.786  0.0000E+00  0.1000E+02
     -5.670  0.0000E+00  0.1000E+02
     -5.554  0.0000E+00  0.1000E+02
     -5.439  0.0000E+00  0.1000E+02
     -5.323  0.0000E+00  0.1000E+02
     -5.208  0.0000E+00  0.1000E+02
     -5.092  0.0000E+00  0.1000E+02
     -4.976  0.0000E+00  0.1000E+02
     -4.861  0.0000E+00  0.1000E+02
     -4.745  0.0000E+00  0.1000E+02
     -4.630  0.0000E+00  0.1000E+02
     -4.514  0.0000E+00  0.1000E+02
     -4.398  0.0000E+00  0.1000E+02
     -4.283  0.0000E+00  0.1000E+02
     -4.167  0.0000E+00  0.1000E+02
     -4.052  0.0000E+00  0.1000E+02
     -3.936  0.0000E+00  0.1000E+02
     -3.820  0.0000E+00  0.1000E+02
     -3.705  0.0000E+00  0.1000E+02
     -3.589  0.0000E+00  0.1000E+02
     -3.474  0.0000E+00  0.1000E+02
     -3.358  0.0000E+00  0.1000E+02
     -3.242  0.0000E+00  0.1000E+02
     -3.127  0.0000E+00  0.1000E+02
     -3.011  0.3842E-14  0.1000E+02
     -2.896  0.2779E-11  0.1000E+02
     -2.780  0.9254E-09  0.1000E+02
     -2.664  0.1600E-06  0.1000E+02
     -2.549  0.1439E-04  0.1000E+02
     -2.433  0.6754E-03  0.1000E+02
     -2.318  0.1660E-01  0.1000E+02
     -2.202  0.2143E+00  0.1003E+02
     -2.086  0.1459E+01  0.1020E+02
     -1.971  0.5260E+01  0.1080E+02
     -1.855  0.1006E+02  0.1197E+02
     -1.740  0.1022E+02  0.1315E+02
     -1.624  0.5523E+01  0.1379E+02
     -1.508  0.1583E+01  0.1397E+02
     -1.393  0.2403E+00  0.1400E+02
     -1.277  0.1923E-01  0.1400E+02
     -1.162  0.8092E-03  0.1400E+02
     -1.046  0.1807E-04  0.1400E+02
     -0.930  0.1939E-04  0.1400E+02
     -0.815  0.7711E-03  0.1400E+02
     -0.699  0.1624E-01  0.1400E+02
     -0.584  0.1798E+00  0.1402E+02
     -0.468  0.1051E+01  0.1414E+02
     -0.352  0.3254E+01  0.1452E+02
     -0.237  0.5348E+01  0.1514E+02
     -0.121  0.4673E+01  0.1568E+02
     -0.006  0.2169E+01  0.1593E+02
      0.110  0.5341E+00  0.1599E+02
      0.226  0.6957E-01  0.1600E+02
      0.341  0.4775E-02  0.1600E+02
      0.457  0.1721E-03  0.1600E+02
      0.572  0.3246E-05  0.1600E+02
      0.688  0.3193E-07  0.1600E+02
      0.804  0.2839E-08  0.1600E+02
      0.919  0.3736E-06  0.1600E+02
      1.035  0.2716E-04  0.1600E+02
      1.150  0.1032E-02  0.1600E+02
      1.266  0.2054E-01  0.1600E+02
      1.382  0.2151E+00  0.1603E+02
      1.497  0.1189E+01  0.1616E+02
      1.613  0.3484E+01  0.1657E+02
      1.728  0.5420E+01  0.1719E+02
      1.844  0.4482E+01  0.1771E+02
      1.960  0.1969E+01  0.1794E+02
      2.075  0.4587E+00  0.1799E+02
      2.191  0.5651E-01  0.1800E+02
      2.306  0.3668E-02  0.1800E+02
      2.422  0.1250E-03  0.1800E+02
      2.538  0.2227E-05  0.1800E+02
      2.653  0.2069E-07  0.1800E+02
      2.769  0.9994E-10  0.1800E+02
      2.884  0.2497E-12  0.1800E+02
      3.000  0.0000E+00  0.1800E+02
      3.116  0.0000E+00  0.1800E+02
      3.231  0.0000E+00  0.1800E+02
      3.347  0.0000E+00  0.1800E+02
      3.462  0.0000E+00  0.1800E+02
      3.578  0.0000E+00  0.1800E+02
      3.694  0.0000E+00  0.1800E+02
      3.69366187    -30.98667595  301     -7.74994648      1.00000000
    -30.987  0.0000E+00  0.0000E+00  0.0000E+00  0.0000E+00  0.0000E+00  0.0000E+00  0.0000E+00  0.0000E+00  0.0000E+00
    -30.871  0.0000E+00  0.0000E+00  0.0000E+00  0.0000E+00  0.0000E+00  0.0000E+00  0.0000E+00  0.0000E+00  0.0000E+00
    -30.755  0.0000E+00  0.0000E+00  0.0000E+00  0.0000E+00  0.0000E+00  0.0000E+00  0.0000E+00  0.0000E+00  0.0000E+00
    -30.640  0.0000E+00  0.0000E+00  0.0000E+00  0.0000E+00  0.0000E+00  0.0000E+00  0.0000E+00  0.0000E+00  0.0000E+00
    -30.524  0.0000E+00  0.0000E+00  0.0000E+00  0.0000E+00  0.0000E+00  0.0000E+00  0.0000E+00  0.0000E+00  0.0000E+00
    -30.409  0.0000E+00  0.0000E+00  0.0000E+00  0.0000E+00  0.0000E+00  0.0000E+00  0.0000E+00  0.0000E+00  0.0000E+00
    -30.293  0.0000E+00  0.0000E+00  0.0000E+00  0.0000E+00  0.0000E+00  0.0000E+00  0.0000E+00  0.0000E+00  0.0000E+00
    -30.177  0.0000E+00  0.0000E+00  0.0000E+00  0.0000E+00  0.0000E+00  0.0000E+00  0.0000E+00  0.0000E+00  0.0000E+00
    -30.062  0.1650E-12  0.1031E-30  0.2468E-13  0.3653E-31  0.0000E+00  0.0000E+00  0.0000E+00  0.0000E+00  0.0000E+00
    -29.946  0.6578E-10  0.4109E-28  0.9839E-11  0.1457E-28  0.0000E+00  0.0000E+00  0.0000E+00  0.0000E+00  0.0000E+00
    -29.831  0.1362E-07  0.8507E-26  0.2037E-08  0.3015E-26  0.0000E+00  0.0000E+00  0.0000E+00  0.0000E+00  0.0000E+00
    -29.715  0.1466E-05  0.9156E-24  0.2192E-06  0.3245E-24  0.0000E+00  0.0000E+00  0.0000E+00  0.0000E+00  0.0000E+00
    -29.599  0.8224E-04  0.5138E-22  0.1230E-04  0.1821E-22  0.0000E+00  0.0000E+00  0.0000E+00  0.0000E+00  0.0000E+00
    -29.484  0.2414E-02  0.1508E-20  0.3611E-03  0.5345E-21  0.0000E+00  0.0000E+00  0.0000E+00  0.0000E+00  0.0000E+00
    -29.368  0.3719E-01  0.2324E-19  0.5563E-02  0.8236E-20  0.0000E+00  0.0000E+00  0.0000E+00  0.0000E+00  0.0000E+00
    -29.253  0.3019E+00  0.1886E-18  0.4516E-01  0.6686E-19  0.0000E+00  0.0000E+00  0.0000E+00  0.0000E+00  0.0000E+00
    -29.137  0.1296E+01  0.8096E-18  0.1938E+00  0.2870E-18  0.0000E+00  0.0000E+00  0.0000E+00  0.0000E+00  0.0000E+00
    -29.021  0.2950E+01  0.1843E-17  0.4412E+00  0.6532E-18  0.0000E+00  0.0000E+00  0.0000E+00  0.0000E+00  0.0000E+00
    -28.906  0.3567E+01  0.2229E-17  0.5336E+00  0.7900E-18  0.0000E+00  0.0000E+00  0.0000E+00  0.0000E+00  0.0000E+00
    -28.790  0.2293E+01  0.1433E-17  0.3430E+00  0.5078E-18  0.0000E+00  0.0000E+00  0.0000E+00  0.0000E+00  0.0000E+00
    -28.675  0.7828E+00  0.4891E-18  0.1171E+00  0.1733E-18  0.0000E+00  0.0000E+00  0.0000E+00  0.0000E+00  0.0000E+00
    -28.559  0.1416E+00  0.8844E-19  0.2118E-01  0.3135E-19  0.0000E+00  0.0000E+00  0.0000E+00  0.0000E+00  0.0000E+00
    -28.443  0.1352E-01  0.8445E-20  0.2022E-02  0.2993E-20  0.0000E+00  0.0000E+00  0.0000E+00  0.0000E+00  0.0000E+00
    -28.328  0.6790E-03  0.4242E-21  0.1016E-03  0.1504E-21  0.0000E+00  0.0000E+00  0.0000E+00  0.0000E+00  0.0000E+00
    -28.212  0.1788E-04  0.1117E-22  0.2674E-05  0.3959E-23  0.0000E+00  0.0000E+00  0.0000E+00  0.0000E+00  0.0000E+00
    -28.097  0.2459E-06  0.1536E-24  0.3678E-07  0.5445E-25  0.0000E+00  0.0000E+00  0.0000E+00  0.0000E+00  0.0000E+00
    -27.981  0.1761E-08  0.1100E-26  0.2634E-09  0.3900E-27  0.0000E+00  0.0000E+00  0.0000E+00  0.0000E+00  0.0000E+00
    -27.865  0.6552E-11  0.4093E-29  0.9801E-12  0.1451E-29  0.0000E+00  0.0000E+00  0.0000E+00  0.0000E+00  0.0000E+00
    -27.750  0.1264E-13  0.7898E-32  0.1891E-14  0.2799E-32  0.0000E+00  0.0000E+00  0.0000E+00  0.0000E+00  0.0000E+00
    -27.634  0.0000E+00  0.0000E+00  0.0000E+00  0.0000E+00  0.0000E+00  0.0000E+00  0.0000E+00  0.0000E+00  0.0000E+00
    -27.519  0.0000E+00  0.0000E+00  0.0000E+00  0.0000E+00  0.0000E+00  0.0000E+00  0.0000E+00  0.0000E+00  0.0000E+00
    -27.403  0.0000E+00  0.0000E+00  0.0000E+00  0.0000E+00  0.0000E+00  0.0000E+00  0.0000E+00  0.0000E+00  0.0000E+00
    -27.287  0.0000E+00  0.0000E+00  0.0000E+00  0.0000E+00  0.0000E+00  0.0000E+00  0.0000E+00  0.0000E+00  0.0000E+00
    -27.172  0.0000E+00  0.0000E+00  0.0000E+00  0.0000E+00  0.0000E+00  0.0000E+00  0.0000E+00  0.0000E+00  0.0000E+00
    -27.056  0.0000E+00  0.0000E+00  0.0000E+00  0.0000E+00  0.0000E+00  0.0000E+00  0.0000E+00  0.0000E+00  0.0000E+00
    -26.941  0.0000E+00  0.0000E+00  0.0000E+00  0.0000E+00  0.0000E+00  0.0000E+00  0.0000E+00  0.0000E+00  0.0000E+00
    -26.825  0.0000E+00  0.0000E+00  0.0000E+00  0.0000E+00  0.0000E+00  0.0000E+00  0.0000E+00  0.0000E+00  0.0000E+00
    -26.709  0.0000E+00  0.0000E+00  0.0000E+00  0.0000E+00  0.0000E+00  0.0000E+00  0.0000E+00  0.0000E+00  0.0000E+00
    -26.594  0.0000E+00  0.0000E+00  0.0000E+00  0.0000E+00  0.0000E+00  0.0000E+00  0.0000E+00  0.0000E+00  0.0000E+00
    -26.478  0.0000E+00  0.0000E+00  0.0000E+00  0.0000E+00  0.0000E+00  0.0000E+00  0.0000E+00  0.0000E+00  0.0000E+00
    -26.363  0.0000E+00  0.0000E+00  0.0000E+00  0.0000E+00  0.0000E+00  0.0000E+00  0.0000E+00  0.0000E+00  0.0000E+00
    -26.247  0.0000E+00  0.0000E+00  0.0000E+00  0.0000E+00  0.0000E+00  0.0000E+00  0.0000E+00  0.0000E+00  0.0000E+00
    -26.131  0.0000E+00  0.0000E+00  0.0000E+00  0.0000E+00  0.0000E+00  0.0000E+00  0.0000E+00  0.0000E+00  0.0000E+00
    -26.016  0.0000E+00  0.0000E+00  0.0000E+00  0.0000E+00  0.0000E+00  0.0000E+00  0.0000E+00  0.0000E+00  0.0000E+00
    -25.900  0.0000E+00  0.0000E+00  0.0000E+00  0.0000E+00  0.0000E+00  0.0000E+00  0.0000E+00  0.0000E+00  0.0000E+00
    -25.785  0.0000E+00  0.0000E+00  0.0000E+00  0.0000E+00  0.0000E+00  0.0000E+00  0.0000E+00  0.0000E+00  0.0000E+00
    -25.669  0.0000E+00  0.0000E+00  0.0000E+00  0.0000E+00  0.0000E+00  0.0000E+00  0.0000E+00  0.0000E+00  0.0000E+00
    -25.553  0.0000E+00  0.0000E+00  0.0000E+00  0.0000E+00  0.0000E+00  0.0000E+00  0.0000E+00  0.0000E+00  0.0000E+00
    -25.438  0.0000E+00  0.0000E+00  0.0000E+00  0.0000E+00  0.0000E+00  0.0000E+00  0.0000E+00  0.0000E+00  0.0000E+00
    -25.322  0.0000E+00  0.0000E+00  0.0000E+00  0.0000E+00  0.0000E+00  0.0000E+00  0.0000E+00  0.0000E+00  0.0000E+00
    -25.207  0.0000E+00  0.0000E+00  0.0000E+00  0.0000E+00  0.0000E+00  0.0000E+00  0.0000E+00  0.0000E+00  0.0000E+00
    -25.091  0.0000E+00  0.0000E+00  0.0000E+00  0.0000E+00  0.0000E+00  0.0000E+00  0.0000E+00  0.0000E+00  0.0000E+00
    -24.975  0.0000E+00  0.0000E+00  0.0000E+00  0.0000E+00  0.0000E+00  0.0000E+00  0.0000E+00  0.0000E+00  0.0000E+00
    -24.860  0.0000E+00  0.0000E+00  0.0000E+00  0.0000E+00  0.0000E+00  0.0000E+00  0.0000E+00  0.0000E+00  0.0000E+00
    -24.744  0.0000E+00  0.0000E+00  0.0000E+00  0.0000E+00  0.0000E+00  0.0000E+00  0.0000E+00  0.0000E+00  0.0000E+00
    -24.629  0.0000E+00  0.0000E+00  0.0000E+00  0.0000E+00  0.0000E+00  0.0000E+00  0.0000E+00  0.0000E+00  0.0000E+00
    -24.513  0.0000E+00  0.0000E+00  0.0000E+00  0.0000E+00  0.0000E+00  0.0000E+00  0.0000E+00  0.0000E+00  0.0000E+00
    -24.397  0.0000E+00  0.0000E+00  0.0000E+00  0.0000E+00  0.0000E+00  0.0000E+00  0.0000E+00  0.0000E+00  0.0000E+00
    -24.282  0.0000E+00  0.0000E+00  0.0000E+00  0.0000E+00  0.0000E+00  0.0000E+00  0.0000E+00  0.0000E+00  0.0000E+00
    -24.166  0.0000E+00  0.0000E+00  0.0000E+00  0.0000E+00  0.0000E+00  0.0000E+00  0.0000E+00  0.0000E+00  0.0000E+00
    -24.051  0.0000E+00  0.0000E+00  0.0000E+00  0.0000E+00  0.0000E+00  0.0000E+00  0.0000E+00  0.0000E+00  0.0000E+00
    -23.935  0.0000E+00  0.0000E+00  0.0000E+00  0.0000E+00  0.0000E+00  0.0000E+00  0.0000E+00  0.0000E+00  0.0000E+00
    -23.819  0.0000E+00  0.0000E+00  0.0000E+00  0.0000E+00  0.0000E+00  0.0000E+00  0.0000E+00  0.0000E+00  0.0000E+00
    -23.704  0.0000E+00  0.0000E+00  0.0000E+00  0.0000E+00  0.0000E+00  0.0000E+00  0.0000E+00  0.0000E+00  0.0000E+00
    -23.588  0.0000E+00  0.0000E+00  0.0000E+00  0.0000E+00  0.0000E+00  0.0000E+00  0.0000E+00  0.0000E+00  0.0000E+00
    -23.473  0.0000E+00  0.0000E+00  0.0000E+00  0.0000E+00  0.0000E+00  0.0000E+00  0.0000E+00  0.0000E+00  0.0000E+00
    -23.357  0.0000E+00  0.0000E+00  0.0000E+00  0.0000E+00  0.0000E+00  0.0000E+00  0.0000E+00  0.0000E+00  0.0000E+00
    -23.241  0.0000E+00  0.0000E+00  0.0000E+00  0.0000E+00  0.0000E+00  0.0000E+00  0.0000E+00  0.0000E+00  0.0000E+00
    -23.126  0.0000E+00  0.0000E+00  0.0000E+00  0.0000E+00  0.0000E+00  0.0000E+00  0.0000E+00  0.0000E+00  0.0000E+00
    -23.010  0.0000E+00  0.0000E+00  0.0000E+00  0.0000E+00  0.0000E+00  0.0000E+00  0.0000E+00  0.0000E+00  0.0000E+00
    -22.895  0.0000E+00  0.0000E+00  0.0000E+00  0.0000E+00  0.0000E+00  0.0000E+00  0.0000E+00  0.0000E+00  0.0000E+00
    -22.779  0.0000E+00  0.0000E+00  0.0000E+00  0.0000E+00  0.0000E+00  0.0000E+00  0.0000E+00  0.0000E+00  0.0000E+00
    -22.663  0.0000E+00  0.0000E+00  0.0000E+00  0.0000E+00  0.0000E+00  0.0000E+00  0.0000E+00  0.0000E+00  0.0000E+00
    -22.548  0.0000E+00  0.0000E+00  0.0000E+00  0.0000E+00  0.0000E+00  0.0000E+00  0.0000E+00  0.0000E+00  0.0000E+00
    -22.432  0.0000E+00  0.0000E+00  0.0000E+00  0.0000E+00  0.0000E+00  0.0000E+00  0.0000E+00  0.0000E+00  0.0000E+00
    -22.317  0.0000E+00  0.0000E+00  0.0000E+00  0.0000E+00  0.0000E+00  0.0000E+00  0.0000E+00  0.0000E+00  0.0000E+00
    -22.201  0.0000E+00  0.0000E+00  0.0000E+00  0.0000E+00  0.0000E+00  0.0000E+00  0.0000E+00  0.0000E+00  0.0000E+00
    -22.085  0.0000E+00  0.0000E+00  0.0000E+00  0.0000E+00  0.0000E+00  0.0000E+00  0.0000E+00  0.0000E+00  0.0000E+00
    -21.970  0.0000E+00  0.0000E+00  0.0000E+00  0.0000E+00  0.0000E+00  0.0000E+00  0.0000E+00  0.0000E+00  0.0000E+00
    -21.854  0.0000E+00  0.0000E+00  0.0000E+00  0.0000E+00  0.0000E+00  0.0000E+00  0.0000E+00  0.0000E+00  0.0000E+00
    -21.739  0.0000E+00  0.0000E+00  0.0000E+00  0.0000E+00  0.0000E+00  0.0000E+00  0.0000E+00  0.0000E+00  0.0000E+00
    -21.623  0.0000E+00  0.0000E+00  0.0000E+00  0.0000E+00  0.0000E+00  0.0000E+00  0.0000E+00  0.0000E+00  0.0000E+00
    -21.507  0.0000E+00  0.0000E+00  0.0000E+00  0.0000E+00  0.0000E+00  0.0000E+00  0.0000E+00  0.0000E+00  0.0000E+00
    -21.392  0.0000E+00  0.0000E+00  0.0000E+00  0.0000E+00  0.0000E+00  0.0000E+00  0.0000E+00  0.0000E+00  0.0000E+00
    -21.276  0.0000E+00  0.0000E+00  0.0000E+00  0.0000E+00  0.0000E+00  0.0000E+00  0.0000E+00  0.0000E+00  0.0000E+00
    -21.161  0.0000E+00  0.0000E+00  0.0000E+00  0.0000E+00  0.0000E+00  0.0000E+00  0.0000E+00  0.0000E+00  0.0000E+00
    -21.045  0.0000E+00  0.0000E+00  0.0000E+00  0.0000E+00  0.0000E+00  0.0000E+00  0.0000E+00  0.0000E+00  0.0000E+00
    -20.929  0.0000E+00  0.0000E+00  0.0000E+00  0.0000E+00  0.0000E+00  0.0000E+00  0.0000E+00  0.0000E+00  0.0000E+00
    -20.814  0.0000E+00  0.0000E+00  0.0000E+00  0.0000E+00  0.0000E+00  0.0000E+00  0.0000E+00  0.0000E+00  0.0000E+00
    -20.698  0.0000E+00  0.0000E+00  0.0000E+00  0.0000E+00  0.0000E+00  0.0000E+00  0.0000E+00  0.0000E+00  0.0000E+00
    -20.583  0.0000E+00  0.0000E+00  0.0000E+00  0.0000E+00  0.0000E+00  0.0000E+00  0.0000E+00  0.0000E+00  0.0000E+00
    -20.467  0.0000E+00  0.0000E+00  0.0000E+00  0.0000E+00  0.0000E+00  0.0000E+00  0.0000E+00  0.0000E+00  0.0000E+00
    -20.351  0.0000E+00  0.0000E+00  0.0000E+00  0.0000E+00  0.0000E+00  0.0000E+00  0.0000E+00  0.0000E+00  0.0000E+00
    -20.236  0.0000E+00  0.0000E+00  0.0000E+00  0.0000E+00  0.0000E+00  0.0000E+00  0.0000E+00  0.0000E+00  0.0000E+00
    -20.120  0.0000E+00  0.0000E+00  0.0000E+00  0.0000E+00  0.0000E+00  0.0000E+00  0.0000E+00  0.0000E+00  0.0000E+00
    -20.005  0.0000E+00  0.0000E+00  0.0000E+00  0.0000E+00  0.0000E+00  0.0000E+00  0.0000E+00  0.0000E+00  0.0000E+00
    -19.889  0.0000E+00  0.0000E+00  0.0000E+00  0.0000E+00  0.0000E+00  0.0000E+00  0.0000E+00  0.0000E+00  0.0000E+00
    -19.773  0.0000E+00  0.0000E+00  0.0000E+00  0.0000E+00  0.0000E+00  0.0000E+00  0.0000E+00  0.0000E+00  0.0000E+00
    -19.658  0.0000E+00  0.0000E+00  0.0000E+00  0.0000E+00  0.0000E+00  0.0000E+00  0.0000E+00  0.0000E+00  0.0000E+00
    -19.542  0.0000E+00  0.0000E+00  0.0000E+00  0.0000E+00  0.0000E+00  0.0000E+00  0.0000E+00  0.0000E+00  0.0000E+00
    -19.427  0.0000E+00  0.0000E+00  0.0000E+00  0.0000E+00  0.0000E+00  0.0000E+00  0.0000E+00  0.0000E+00  0.0000E+00
    -19.311  0.0000E+00  0.0000E+00  0.0000E+00  0.0000E+00  0.0000E+00  0.0000E+00  0.0000E+00  0.0000E+00  0.0000E+00
    -19.195  0.0000E+00  0.0000E+00  0.0000E+00  0.0000E+00  0.0000E+00  0.0000E+00  0.0000E+00  0.0000E+00  0.0000E+00
    -19.080  0.0000E+00  0.0000E+00  0.0000E+00  0.0000E+00  0.0000E+00  0.0000E+00  0.0000E+00  0.0000E+00  0.0000E+00
    -18.964  0.0000E+00  0.0000E+00  0.0000E+00  0.0000E+00  0.0000E+00  0.0000E+00  0.0000E+00  0.0000E+00  0.0000E+00
    -18.849  0.0000E+00  0.0000E+00  0.0000E+00  0.0000E+00  0.0000E+00  0.0000E+00  0.0000E+00  0.0000E+00  0.0000E+00
    -18.733  0.0000E+00  0.0000E+00  0.0000E+00  0.0000E+00  0.0000E+00  0.0000E+00  0.0000E+00  0.0000E+00  0.0000E+00
    -18.617  0.0000E+00  0.0000E+00  0.0000E+00  0.0000E+00  0.0000E+00  0.0000E+00  0.0000E+00  0.0000E+00  0.0000E+00
    -18.502  0.0000E+00  0.0000E+00  0.0000E+00  0.0000E+00  0.0000E+00  0.0000E+00  0.0000E+00  0.0000E+00  0.0000E+00
    -18.386  0.0000E+00  0.0000E+00  0.0000E+00  0.0000E+00  0.0000E+00  0.0000E+00  0.0000E+00  0.0000E+00  0.0000E+00
    -18.271  0.0000E+00  0.0000E+00  0.0000E+00  0.0000E+00  0.0000E+00  0.0000E+00  0.0000E+00  0.0000E+00  0.0000E+00
    -18.155  0.0000E+00  0.0000E+00  0.0000E+00  0.0000E+00  0.0000E+00  0.0000E+00  0.0000E+00  0.0000E+00  0.0000E+00
    -18.039  0.0000E+00  0.0000E+00  0.0000E+00  0.0000E+00  0.0000E+00  0.0000E+00  0.0000E+00  0.0000E+00  0.0000E+00
    -17.924  0.0000E+00  0.0000E+00  0.0000E+00  0.0000E+00  0.0000E+00  0.0000E+00  0.0000E+00  0.0000E+00  0.0000E+00
    -17.808  0.0000E+00  0.0000E+00  0.0000E+00  0.0000E+00  0.0000E+00  0.0000E+00  0.0000E+00  0.0000E+00  0.0000E+00
    -17.693  0.0000E+00  0.0000E+00  0.0000E+00  0.0000E+00  0.0000E+00  0.0000E+00  0.0000E+00  0.0000E+00  0.0000E+00
    -17.577  0.0000E+00  0.0000E+00  0.0000E+00  0.0000E+00  0.0000E+00  0.0000E+00  0.0000E+00  0.0000E+00  0.0000E+00
    -17.461  0.0000E+00  0.0000E+00  0.0000E+00  0.0000E+00  0.0000E+00  0.0000E+00  0.0000E+00  0.0000E+00  0.0000E+00
    -17.346  0.0000E+00  0.0000E+00  0.0000E+00  0.0000E+00  0.0000E+00  0.0000E+00  0.0000E+00  0.0000E+00  0.0000E+00
    -17.230  0.0000E+00  0.0000E+00  0.0000E+00  0.0000E+00  0.0000E+00  0.0000E+00  0.0000E+00  0.0000E+00  0.0000E+00
    -17.115  0.0000E+00  0.0000E+00  0.0000E+00  0.0000E+00  0.0000E+00  0.0000E+00  0.0000E+00  0.0000E+00  0.0000E+00
    -16.999  0.0000E+00  0.0000E+00  0.0000E+00  0.0000E+00  0.0000E+00  0.0000E+00  0.0000E+00  0.0000E+00  0.0000E+00
    -16.883  0.0000E+00  0.0000E+00  0.0000E+00  0.0000E+00  0.0000E+00  0.0000E+00  0.0000E+00  0.0000E+00  0.0000E+00
    -16.768  0.0000E+00  0.0000E+00  0.0000E+00  0.0000E+00  0.0000E+00  0.0000E+00  0.0000E+00  0.0000E+00  0.0000E+00
    -16.652  0.0000E+00  0.0000E+00  0.0000E+00  0.0000E+00  0.0000E+00  0.0000E+00  0.0000E+00  0.0000E+00  0.0000E+00
    -16.537  0.0000E+00  0.0000E+00  0.0000E+00  0.0000E+00  0.0000E+00  0.0000E+00  0.0000E+00  0.0000E+00  0.0000E+00
    -16.421  0.0000E+00  0.0000E+00  0.0000E+00  0.0000E+00  0.0000E+00  0.0000E+00  0.0000E+00  0.0000E+00  0.0000E+00
    -16.305  0.0000E+00  0.0000E+00  0.0000E+00  0.0000E+00  0.0000E+00  0.0000E+00  0.0000E+00  0.0000E+00  0.0000E+00
    -16.190  0.0000E+00  0.0000E+00  0.0000E+00  0.0000E+00  0.0000E+00  0.0000E+00  0.0000E+00  0.0000E+00  0.0000E+00
    -16.074  0.0000E+00  0.0000E+00  0.0000E+00  0.0000E+00  0.0000E+00  0.0000E+00  0.0000E+00  0.0000E+00  0.0000E+00
    -15.959  0.0000E+00  0.0000E+00  0.0000E+00  0.0000E+00  0.0000E+00  0.0000E+00  0.0000E+00  0.0000E+00  0.0000E+00
    -15.843  0.0000E+00  0.0000E+00  0.0000E+00  0.0000E+00  0.0000E+00  0.0000E+00  0.0000E+00  0.0000E+00  0.0000E+00
    -15.727  0.0000E+00  0.0000E+00  0.0000E+00  0.0000E+00  0.0000E+00  0.0000E+00  0.0000E+00  0.0000E+00  0.0000E+00
    -15.612  0.0000E+00  0.0000E+00  0.0000E+00  0.0000E+00  0.0000E+00  0.0000E+00  0.0000E+00  0.0000E+00  0.0000E+00
    -15.496  0.0000E+00  0.0000E+00  0.0000E+00  0.0000E+00  0.0000E+00  0.0000E+00  0.0000E+00  0.0000E+00  0.0000E+00
    -15.381  0.0000E+00  0.0000E+00  0.0000E+00  0.0000E+00  0.0000E+00  0.0000E+00  0.0000E+00  0.0000E+00  0.0000E+00
    -15.265  0.0000E+00  0.0000E+00  0.0000E+00  0.0000E+00  0.0000E+00  0.0000E+00  0.0000E+00  0.0000E+00  0.0000E+00
    -15.149  0.0000E+00  0.0000E+00  0.0000E+00  0.0000E+00  0.0000E+00  0.0000E+00  0.0000E+00  0.0000E+00  0.0000E+00
    -15.034  0.0000E+00  0.0000E+00  0.0000E+00  0.0000E+00  0.0000E+00  0.0000E+00  0.0000E+00  0.0000E+00  0.0000E+00
    -14.918  0.4843E-15  0.3253E-33  0.1293E-14  0.1433E-33  0.0000E+00  0.0000E+00  0.0000E+00  0.0000E+00  0.0000E+00
    -14.803  0.2962E-12  0.1990E-30  0.7908E-12  0.8764E-31  0.0000E+00  0.0000E+00  0.0000E+00  0.0000E+00  0.0000E+00
    -14.687  0.9616E-10  0.6460E-28  0.2567E-09  0.2845E-28  0.0000E+00  0.0000E+00  0.0000E+00  0.0000E+00  0.0000E+00
    -14.571  0.1621E-07  0.1089E-25  0.4327E-07  0.4795E-26  0.0000E+00  0.0000E+00  0.0000E+00  0.0000E+00  0.0000E+00
    -14.456  0.1421E-05  0.9549E-24  0.3794E-05  0.4205E-24  0.0000E+00  0.0000E+00  0.0000E+00  0.0000E+00  0.0000E+00
    -14.340  0.6506E-04  0.4370E-22  0.1737E-03  0.1925E-22  0.0000E+00  0.0000E+00  0.0000E+00  0.0000E+00  0.0000E+00
    -14.225  0.1559E-02  0.1047E-20  0.4162E-02  0.4613E-21  0.0000E+00  0.0000E+00  0.0000E+00  0.0000E+00  0.0000E+00
    -14.109  0.1964E-01  0.1319E-19  0.5242E-01  0.5809E-20  0.0000E+00  0.0000E+00  0.0000E+00  0.0000E+00  0.0000E+00
    -13.993  0.1305E+00  0.8764E-19  0.3483E+00  0.3859E-19  0.0000E+00  0.0000E+00  0.0000E+00  0.0000E+00  0.0000E+00
    -13.878  0.4587E+00  0.3082E-18  0.1225E+01  0.1357E-18  0.0000E+00  0.0000E+00  0.0000E+00  0.0000E+00  0.0000E+00
    -13.762  0.8560E+00  0.5751E-18  0.2285E+01  0.2532E-18  0.0000E+00  0.0000E+00  0.0000E+00  0.0000E+00  0.0000E+00
    -13.647  0.8490E+00  0.5703E-18  0.2266E+01  0.2512E-18  0.0000E+00  0.0000E+00  0.0000E+00  0.0000E+00  0.0000E+00
    -13.531  0.4475E+00  0.3006E-18  0.1195E+01  0.1324E-18  0.0000E+00  0.0000E+00  0.0000E+00  0.0000E+00  0.0000E+00
    -13.415  0.1252E+00  0.8409E-19  0.3341E+00  0.3703E-19  0.0000E+00  0.0000E+00  0.0000E+00  0.0000E+00  0.0000E+00
    -13.300  0.1853E-01  0.1245E-19  0.4947E-01  0.5482E-20  0.0000E+00  0.0000E+00  0.0000E+00  0.0000E+00  0.0000E+00
    -13.184  0.1447E-02  0.9720E-21  0.3862E-02  0.4280E-21  0.0000E+00  0.0000E+00  0.0000E+00  0.0000E+00  0.0000E+00
    -13.069  0.5936E-04  0.3988E-22  0.1585E-03  0.1756E-22  0.0000E+00  0.0000E+00  0.0000E+00  0.0000E+00  0.0000E+00
    -12.953  0.1275E-05  0.8566E-24  0.3404E-05  0.3772E-24  0.0000E+00  0.0000E+00  0.0000E+00  0.0000E+00  0.0000E+00