    2    2    1    1
  0.2560000E+03  0.8000000E-09  0.8000000E-09  0.8000000E-09  0.5000000E-15
  1.000000000000000E-004
  CAR 
 CO partial DOS                          
     10      1      9
 
  0.0000000E+00  0.0000000E+00  0.0000000E+00  0.1000000E+01
    1      -28.986676
    2      -13.763618
    3      -11.467152
    4      -11.467152
    5       -8.764518
    6       -1.852215
    7       -1.852215
    8       -0.261486
    9        1.693662
