       N       E                     dE             d eps       ncg     rms          rms(c)
DAV:   1    -0.148000895440E+02   -0.14800E+02   -0.32773E-06    18   0.978E-03    0.197E-03
DAV:   2    -0.148000894738E+02    0.70163E-07   -0.10536E-06    20   0.670E-03
   1 F= -.14800089E+02 E0= -.14800089E+02  d E =-.752275E-12
