PROCAR lm decomposed
# of k-points:    1         # of bands:   9         # of ions:   2

 k-point    1 :    0.00000000 0.00000000 0.00000000     weight = 1.00000000

band   1 # energy  -28.98667595 # occ.  2.00000000
 
ion      s     py     pz     px    dxy    dyz    dz2    dxz    dx2    tot
  1  0.658  0.000  0.098  0.000  0.000  0.000  0.000  0.000  0.000  0.757
  2  0.162  0.000  0.126  0.000  0.000  0.000  0.000  0.000  0.000  0.288
tot  0.820  0.000  0.225  0.000  0.000  0.000  0.000  0.000  0.000  1.044
 
band   2 # energy  -13.76361764 # occ.  2.00000000
 
ion      s     py     pz     px    dxy    dyz    dz2    dxz    dx2    tot
  1  0.168  0.000  0.449  0.000  0.000  0.000  0.000  0.000  0.000  0.617
  2  0.187  0.000  0.018  0.000  0.000  0.000  0.000  0.000  0.000  0.205
tot  0.355  0.000  0.467  0.000  0.000  0.000  0.000  0.000  0.000  0.822
 
band   3 # energy  -11.46715211 # occ.  2.00000000
 
ion      s     py     pz     px    dxy    dyz    dz2    dxz    dx2    tot
  1  0.000  0.386  0.000  0.160  0.000  0.000  0.000  0.000  0.000  0.546
  2  0.000  0.111  0.000  0.046  0.000  0.000  0.000  0.000  0.000  0.157
tot  0.000  0.497  0.000  0.206  0.000  0.000  0.000  0.000  0.000  0.703
 
band   4 # energy  -11.46715211 # occ.  2.00000000
 
ion      s     py     pz     px    dxy    dyz    dz2    dxz    dx2    tot
  1  0.000  0.160  0.000  0.386  0.000  0.000  0.000  0.000  0.000  0.546
  2  0.000  0.046  0.000  0.111  0.000  0.000  0.000  0.000  0.000  0.157
tot  0.000  0.206  0.000  0.497  0.000  0.000  0.000  0.000  0.000  0.703
 
band   5 # energy   -8.76451775 # occ.  2.00000000
 
ion      s     py     pz     px    dxy    dyz    dz2    dxz    dx2    tot
  1  0.001  0.000  0.135  0.000  0.000  0.000  0.000  0.000  0.000  0.136
  2  0.172  0.000  0.261  0.000  0.000  0.000  0.000  0.000  0.000  0.432
tot  0.173  0.000  0.396  0.000  0.000  0.000  0.000  0.000  0.000  0.569
 
band   6 # energy   -1.85221524 # occ.  0.00000000
 
ion      s     py     pz     px    dxy    dyz    dz2    dxz    dx2    tot
  1  0.000  0.154  0.000  0.051  0.000  0.000  0.000  0.000  0.000  0.205
  2  0.000  0.235  0.000  0.078  0.000  0.000  0.000  0.000  0.000  0.313
tot  0.000  0.390  0.000  0.129  0.000  0.000  0.000  0.000  0.000  0.519
 
band   7 # energy   -1.85221524 # occ.  0.00000000
 
ion      s     py     pz     px    dxy    dyz    dz2    dxz    dx2    tot
  1  0.000  0.051  0.000  0.154  0.000  0.000  0.000  0.000  0.000  0.205
  2  0.000  0.078  0.000  0.235  0.000  0.000  0.000  0.000  0.000  0.313
tot  0.000  0.129  0.000  0.390  0.000  0.000  0.000  0.000  0.000  0.519
 
band   8 # energy   -0.26148588 # occ.  0.00000000
 
ion      s     py     pz     px    dxy    dyz    dz2    dxz    dx2    tot
  1  0.004  0.000  0.004  0.000  0.000  0.000  0.000  0.000  0.000  0.007
  2  0.008  0.000  0.008  0.000  0.000  0.000  0.000  0.000  0.000  0.016
tot  0.012  0.000  0.012  0.000  0.000  0.000  0.000  0.000  0.000  0.023
 
band   9 # energy    1.69366187 # occ.  0.00000000
 
ion      s     py     pz     px    dxy    dyz    dz2    dxz    dx2    tot
  1  0.009  0.000  0.000  0.000  0.000  0.000  0.000  0.000  0.000  0.010
  2  0.001  0.000  0.000  0.000  0.000  0.000  0.000  0.000  0.000  0.001
tot  0.010  0.000  0.000  0.000  0.000  0.000  0.000  0.000  0.000  0.010
 
