<?xml version="1.0" encoding="ISO-8859-1"?>
<modeling>
 <generator>
  <i name="program" type="string">vasp </i>
  <i name="version" type="string">5.3.5  </i>
  <i name="subversion" type="string">31Mar14 (build Dec 17 2014 13:12:56) complex                          serial </i>
  <i name="platform" type="string">LinuxIFC_ath </i>
  <i name="date" type="string">2015 06 29 </i>
  <i name="time" type="string">16:09:26 </i>
 </generator>
 <incar>
  <i type="string" name="SYSTEM"> CO partial DOS</i>
  <i type="string" name="PREC">normal</i>
  <i type="int" name="ISMEAR">     0</i>
  <i type="logical" name="LORBIT"> F  </i>
 </incar>
 <kpoints>
  <varray name="kpointlist" >
   <v>       0.00000000       0.00000000       0.00000000 </v>
  </varray>
  <varray name="weights" >
   <v>       1.00000000 </v>
  </varray>
 </kpoints>
 <parameters>
  <separator name="general" >
   <i type="string" name="SYSTEM">CO partial DOS</i>
   <i type="logical" name="LCOMPAT"> F  </i>
  </separator>
  <separator name="electronic" >
   <i type="string" name="PREC">normal</i>
   <i name="ENMAX">    400.00000000</i>
   <i name="ENAUG">    644.87300000</i>
   <i name="EDIFF">      0.00010000</i>
   <i type="int" name="IALGO">    38</i>
   <i type="int" name="IWAVPR">     0</i>
   <i type="int" name="NBANDS">     9</i>
   <i name="NELECT">     10.00000000</i>
   <i type="int" name="TURBO">     0</i>
   <i type="int" name="IRESTART">     0</i>
   <i type="int" name="NREBOOT">     0</i>
   <i type="int" name="NMIN">     0</i>
   <i name="EREF">      0.00000000</i>
   <separator name="electronic smearing" >
    <i type="int" name="ISMEAR">     0</i>
    <i name="SIGMA">      0.20000000</i>
    <i name="KSPACING">      0.50000000</i>
    <i type="logical" name="KGAMMA"> T  </i>
   </separator>
   <separator name="electronic projectors" >
    <i type="logical" name="LREAL"> F  </i>
    <v name="ROPT">      0.00000000      0.00000000</v>
    <i type="int" name="LMAXPAW">  -100</i>
    <i type="int" name="LMAXMIX">     2</i>
    <i type="logical" name="NLSPLINE"> F  </i>
   </separator>
   <separator name="electronic startup" >
    <i type="int" name="ISTART">     1</i>
    <i type="int" name="ICHARG">     0</i>
    <i type="int" name="INIWAV">     1</i>
   </separator>
   <separator name="electronic spin" >
    <i type="int" name="ISPIN">     1</i>
    <i type="logical" name="LNONCOLLINEAR"> F  </i>
    <v name="MAGMOM">      1.00000000      1.00000000</v>
    <i name="NUPDOWN">     -1.00000000</i>
    <i type="logical" name="LSORBIT"> F  </i>
    <v name="SAXIS">      0.00000000      0.00000000      1.00000000</v>
    <i type="logical" name="LSPIRAL"> F  </i>
    <v name="QSPIRAL">      0.00000000      0.00000000      0.00000000</v>
    <i type="logical" name="LZEROZ"> F  </i>
   </separator>
   <separator name="electronic exchange-correlation" >
    <i type="logical" name="LASPH"> F  </i>
    <i type="logical" name="LMETAGGA"> F  </i>
   </separator>
   <separator name="electronic convergence" >
    <i type="int" name="NELM">    60</i>
    <i type="int" name="NELMDL">     0</i>
    <i type="int" name="NELMIN">     2</i>
    <i name="ENINI">    400.00000000</i>
    <separator name="electronic convergence detail" >
     <i type="logical" name="LDIAG"> T  </i>
     <i type="logical" name="LSUBROT"> F  </i>
     <i name="WEIMIN">      0.00000000</i>
     <i name="EBREAK">      0.00000278</i>
     <i name="DEPER">      0.30000000</i>
     <i type="int" name="NRMM">     4</i>
     <i name="TIME">      0.40000000</i>
    </separator>
   </separator>
   <separator name="electronic mixer" >
    <i name="AMIX">      0.40000000</i>
    <i name="BMIX">      1.00000000</i>
    <i name="AMIN">      0.10000000</i>
    <i name="AMIX_MAG">      1.60000000</i>
    <i name="BMIX_MAG">      1.00000000</i>
    <separator name="electronic mixer details" >
     <i type="int" name="IMIX">     4</i>
     <i type="int" name="MAXMIX">   -45</i>
     <i name="WC">    100.00000000</i>
     <i type="int" name="INIMIX">     1</i>
     <i type="int" name="MIXPRE">     1</i>
     <i type="int" name="MREMOVE">     5</i>
    </separator>
   </separator>
   <separator name="electronic dipolcorrection" >
    <i type="logical" name="LDIPOL"> F  </i>
    <i type="logical" name="LMONO"> F  </i>
    <i type="int" name="IDIPOL">     0</i>
    <i name="EPSILON">      1.00000000</i>
    <v name="DIPOL">   -100.00000000   -100.00000000   -100.00000000</v>
    <i name="EFIELD">      0.00000000</i>
   </separator>
  </separator>
  <separator name="grids" >
   <i type="int" name="NGX">    40</i>
   <i type="int" name="NGY">    40</i>
   <i type="int" name="NGZ">    40</i>
   <i type="int" name="NGXF">    80</i>
   <i type="int" name="NGYF">    80</i>
   <i type="int" name="NGZF">    80</i>
   <i type="logical" name="ADDGRID"> F  </i>
  </separator>
  <separator name="ionic" >
   <i type="int" name="NSW">     0</i>
   <i type="int" name="IBRION">    -1</i>
   <i type="int" name="ISIF">     2</i>
   <i name="PSTRESS">      0.00000000</i>
   <i name="EDIFFG">      0.00100000</i>
   <i type="int" name="NFREE">     0</i>
   <i name="POTIM">      0.50000000</i>
   <i name="SMASS">     -3.00000000</i>
   <i name="SCALEE">      1.00000000</i>
  </separator>
  <separator name="ionic md" >
   <i name="TEBEG">      0.00010000</i>
   <i name="TEEND">      0.00010000</i>
   <i type="int" name="NBLOCK">     1</i>
   <i type="int" name="KBLOCK">     1</i>
   <i type="int" name="NPACO">   256</i>
   <i name="APACO">     16.00000000</i>
  </separator>
  <separator name="symmetry" >
   <i type="int" name="ISYM">     2</i>
   <i name="SYMPREC">      0.00001000</i>
  </separator>
  <separator name="dos" >
   <i type="logical" name="LORBIT"> F  </i>
   <v name="RWIGS">     -1.00000000     -1.00000000</v>
   <i type="int" name="NEDOS">   301</i>
   <i name="EMIN">     10.00000000</i>
   <i name="EMAX">    -10.00000000</i>
   <i name="EFERMI">      0.00000000</i>
  </separator>
  <separator name="writing" >
   <i type="int" name="NWRITE">     2</i>
   <i type="logical" name="LWAVE"> T  </i>
   <i type="logical" name="LCHARG"> T  </i>
   <i type="logical" name="LPARD"> F  </i>
   <i type="logical" name="LVTOT"> F  </i>
   <i type="logical" name="LVHAR"> F  </i>
   <i type="logical" name="LELF"> F  </i>
   <i type="logical" name="LOPTICS"> F  </i>
   <v name="STM">      0.00000000      0.00000000      0.00000000      0.00000000      0.00000000      0.00000000      0.00000000</v>
  </separator>
  <separator name="performance" >
   <i type="int" name="NPAR">     1</i>
   <i type="int" name="NSIM">     4</i>
   <i type="int" name="NBLK">    -1</i>
   <i type="logical" name="LPLANE"> T  </i>
   <i type="logical" name="LSCALAPACK"> F  </i>
   <i type="logical" name="LSCAAWARE"> F  </i>
   <i type="logical" name="LSCALU"> F  </i>
   <i type="logical" name="LASYNC"> F  </i>
   <i type="logical" name="LORBITALREAL"> F  </i>
  </separator>
  <separator name="miscellaneous" >
   <i type="int" name="IDIOT">     3</i>
   <i type="logical" name="LMUSIC"> F  </i>
   <v name="POMASS">     16.00000000     12.01100000</v>
   <v name="DARWINR">      0.00000000      0.00000000</v>
   <v name="DARWINV">      1.00000000      1.00000000</v>
   <i type="logical" name="LCORR"> T  </i>
  </separator>
  <i type="logical" name="GGA_COMPAT"> T  </i>
  <i type="logical" name="LBERRY"> F  </i>
  <i type="int" name="ICORELEVEL">     0</i>
  <i type="logical" name="LDAU"> F  </i>
  <i type="int" name="I_CONSTRAINED_M">     0</i>
  <separator name="electronic exchange-correlation" >
   <i type="string" name="GGA">--</i>
   <i type="int" name="VOSKOWN">     0</i>
   <i type="logical" name="LHFCALC"> F  </i>
   <i type="string" name="PRECFOCK"></i>
   <i type="logical" name="LSYMGRAD"> F  </i>
   <i type="logical" name="LHFONE"> F  </i>
   <i type="logical" name="LRHFCALC"> F  </i>
   <i type="logical" name="LTHOMAS"> F  </i>
   <i type="logical" name="LMODELHF"> F  </i>
   <i name="ENCUT4O">     -1.00000000</i>
   <i type="int" name="EXXOEP">     0</i>
   <i type="int" name="FOURORBIT">     0</i>
   <i name="AEXX">      0.00000000</i>
   <i name="HFALPHA">      0.00000000</i>
   <i name="MCALPHA">      0.00000000</i>
   <i name="ALDAX">      1.00000000</i>
   <i name="AGGAX">      1.00000000</i>
   <i name="ALDAC">      1.00000000</i>
   <i name="AGGAC">      1.00000000</i>
   <i type="int" name="NKREDX">     1</i>
   <i type="int" name="NKREDY">     1</i>
   <i type="int" name="NKREDZ">     1</i>
   <i type="logical" name="SHIFTRED"> F  </i>
   <i type="logical" name="ODDONLY"> F  </i>
   <i type="logical" name="EVENONLY"> F  </i>
   <i type="int" name="LMAXFOCK">     0</i>
   <i type="int" name="NMAXFOCKAE">     0</i>
   <i type="logical" name="LFOCKAEDFT"> F  </i>
   <i name="HFSCREEN">      0.00000000</i>
   <i name="HFSCREENC">      0.00000000</i>
   <i type="int" name="NBANDSGWLOW">     0</i>
  </separator>
  <separator name="vdW DFT" >
   <i type="logical" name="LUSE_VDW"> F  </i>
   <i name="Zab_VDW">     -0.84910000</i>
   <i name="PARAM1">      0.12340000</i>
   <i name="PARAM2">      1.00000000</i>
   <i name="PARAM3">      0.00000000</i>
  </separator>
  <separator name="model GW" >
   <i type="int" name="MODEL_GW">     0</i>
   <i name="MODEL_EPS0">    153.60000000</i>
   <i name="MODEL_ALPHA">      1.00000000</i>
  </separator>
  <separator name="linear response parameters" >
   <i type="logical" name="LEPSILON"> F  </i>
   <i type="logical" name="LRPA"> F  </i>
   <i type="logical" name="LNABLA"> F  </i>
   <i type="logical" name="LVEL"> F  </i>
   <i type="int" name="KINTER">     0</i>
   <i name="CSHIFT">      0.10000000</i>
   <i name="OMEGAMAX">     -1.00000000</i>
   <i name="DEG_THRESHOLD">      0.00200000</i>
  </separator>
  <separator name="orbital magnetization" >
   <i type="logical" name="NUCIND"> F  </i>
   <v name="MAGPOS">      0.00000000      0.00000000      0.00000000</v>
   <i type="logical" name="LNICSALL"> T  </i>
   <i type="logical" name="ORBITALMAG"> F  </i>
   <i type="logical" name="LMAGBLOCH"> F  </i>
   <i type="logical" name="LCHIMAG"> F  </i>
   <i type="logical" name="LGAUGE"> T  </i>
   <i type="int" name="MAGATOM">     0</i>
   <v name="MAGDIPOL">      0.00000000      0.00000000      0.00000000</v>
   <v name="AVECCONST">      0.00000000      0.00000000      0.00000000</v>
  </separator>
  <separator name="response functions" >
   <i type="logical" name="LADDER"> F  </i>
   <i type="logical" name="LFXC"> F  </i>
   <i type="logical" name="LHARTREE"> T  </i>
   <i type="int" name="IBSE">     0</i>
   <i type="logical" name="LTCTE"> F  </i>
   <i type="logical" name="LTETE"> F  </i>
   <i type="logical" name="LTRIPLET"> F  </i>
   <i type="logical" name="LFXCEPS"> F  </i>
   <i type="logical" name="LFXHEG"> F  </i>
   <i type="logical" name="L2ORDER"> F  </i>
   <i type="logical" name="LUSEW"> F  </i>
   <i name="ENCUTGW">     -2.00000000</i>
   <i name="ENCUTGWSOFT">     -2.00000000</i>
   <i name="ENCUTLF">     -1.00000000</i>
   <i type="int" name="LMAXMP2">    -1</i>
   <i name="SCISSOR">      0.00000000</i>
   <i type="int" name="NOMEGA">     0</i>
   <i type="int" name="NOMEGAR">     0</i>
   <i type="int" name="NBANDSGW">    -1</i>
   <i type="int" name="NBANDSO">    -1</i>
   <i type="int" name="NBANDSV">    -1</i>
   <i type="int" name="NELM">     1</i>
   <i type="int" name="DIM">     3</i>
   <i type="int" name="ANTIRES">     0</i>
   <i name="OMEGAMAX">    -30.00000000</i>
   <i name="OMEGAMIN">    -30.00000000</i>
   <i name="OMEGATL">   -200.00000000</i>
   <i type="int" name="OMEGAGRID">     0</i>
   <i name="CSHIFT">     -0.10000000</i>
   <i type="logical" name="SELFENERGY"> F  </i>
   <i type="logical" name="LSPECTRAL"> F  </i>
   <i type="logical" name="ODDONLYGW"> F  </i>
   <i type="logical" name="EVENONLYGW"> F  </i>
   <i type="int" name="NKREDLFX">     1</i>
   <i type="int" name="NKREDLFY">     1</i>
   <i type="int" name="NKREDLFZ">     1</i>
   <i type="int" name="MAXMEM">  1800</i>
   <i type="int" name="TELESCOPE">     0</i>
   <i type="int" name="TAUPAR">     1</i>
  </separator>
  <separator name="External order field" >
   <i name="OFIELD_KAPPA">      0.00000000</i>
   <v name="OFIELD_K">      0.00000000      0.00000000      0.00000000</v>
   <i name="OFIELD_Q6_NEAR">      0.00000000</i>
   <i name="OFIELD_Q6_FAR">      0.00000000</i>
   <i name="OFIELD_A">      0.00000000</i>
  </separator>
 </parameters>
 <atominfo>
  <atoms>       2 </atoms>
  <types>       2 </types>
  <array name="atoms" >
   <dimension dim="1">ion</dimension>
   <field type="string">element</field>
   <field type="int">atomtype</field>
   <set>
    <rc><c>O </c><c>   1</c></rc>
    <rc><c>C </c><c>   2</c></rc>
   </set>
  </array>
  <array name="atomtypes" >
   <dimension dim="1">type</dimension>
   <field type="int">atomspertype</field>
   <field type="string">element</field>
   <field>mass</field>
   <field>valence</field>
   <field type="string">pseudopotential</field>
   <set>
    <rc><c>   1</c><c>O </c><c>     16.00000000</c><c>      6.00000000</c><c>  PAW_PBE O 08Apr2002                   </c></rc>
    <rc><c>   1</c><c>C </c><c>     12.01100000</c><c>      4.00000000</c><c>  PAW_PBE C 08Apr2002                   </c></rc>
   </set>
  </array>
 </atominfo>
 <structure name="initialpos" >
  <crystal>
   <varray name="basis" >
    <v>       8.00000000       0.00000000       0.00000000 </v>
    <v>       0.00000000       8.00000000       0.00000000 </v>
    <v>       0.00000000       0.00000000       8.00000000 </v>
   </varray>
   <i name="volume">    512.00000000 </i>
   <varray name="rec_basis" >
    <v>       0.12500000       0.00000000       0.00000000 </v>
    <v>       0.00000000       0.12500000       0.00000000 </v>
    <v>       0.00000000       0.00000000       0.12500000 </v>
   </varray>
  </crystal>
  <varray name="positions" >
   <v>       0.00000000       0.00000000       0.00000000 </v>
   <v>       0.00000000       0.00000000       0.14287500 </v>
  </varray>
  <varray name="selective"  type="logical" >
   <v type="logical" >  F  F  T </v>
   <v type="logical" >  F  F  T </v>
  </varray>
  <nose>
   <v>      -3.00000000       0.00000000       0.00010000       0.00010000 </v>
  </nose>
 </structure>
 <calculation>
  <scstep>
   <time name="dav">    0.27    0.27</time>
   <time name="total">    1.00    1.00</time>
   <energy>
    <i name="alphaZ">      0.85343271 </i>
    <i name="ewald">     48.90784304 </i>
    <i name="hartreedc">   -533.01335044 </i>
    <i name="XCdc">     40.40992879 </i>
    <i name="pawpsdc">    863.16690424 </i>
    <i name="pawaedc">   -865.62052431 </i>
    <i name="eentropy">      0.00000000 </i>
    <i name="bandstr">   -148.89474349 </i>
    <i name="atom">    579.39041991 </i>
    <i name="e_fr_energy">    -14.80008954 </i>
    <i name="e_wo_entrp">    -14.80008954 </i>
    <i name="e_0_energy">    -14.80008954 </i>
   </energy>
  </scstep>
  <scstep>
   <time name="dav">    0.29    0.30</time>
   <time name="total">    0.91    0.91</time>
   <energy>
    <i name="alphaZ">      0.85343271 </i>
    <i name="ewald">     48.90784304 </i>
    <i name="hartreedc">   -533.00972966 </i>
    <i name="XCdc">     40.40972766 </i>
    <i name="pawpsdc">    863.16364078 </i>
    <i name="pawaedc">   -865.61719280 </i>
    <i name="eentropy">      0.00000000 </i>
    <i name="bandstr">   -148.89823111 </i>
    <i name="atom">    579.39041991 </i>
    <i name="e_fr_energy">    -14.80008947 </i>
    <i name="e_wo_entrp">    -14.80008947 </i>
    <i name="e_0_energy">    -14.80008947 </i>
   </energy>
  </scstep>
  <structure>
   <crystal>
    <varray name="basis" >
     <v>       8.00000000       0.00000000       0.00000000 </v>
     <v>       0.00000000       8.00000000       0.00000000 </v>
     <v>       0.00000000       0.00000000       8.00000000 </v>
    </varray>
    <i name="volume">    512.00000000 </i>
    <varray name="rec_basis" >
     <v>       0.12500000       0.00000000       0.00000000 </v>
     <v>       0.00000000       0.12500000       0.00000000 </v>
     <v>       0.00000000       0.00000000       0.12500000 </v>
    </varray>
   </crystal>
   <varray name="positions" >
    <v>       0.00000000       0.00000000       0.00000000 </v>
    <v>       0.00000000       0.00000000       0.14287500 </v>
   </varray>
  </structure>
  <varray name="forces" >
   <v>       0.00000000       0.00000000      -0.07653045 </v>
   <v>       0.00000000       0.00000000       0.07653045 </v>
  </varray>
  <varray name="stress" >
   <v>      -2.40947329       0.00000000       0.00000000 </v>
   <v>       0.00000000      -2.40947329       0.00000000 </v>
   <v>       0.00000000       0.00000000      -2.06018706 </v>
  </varray>
  <energy>
   <i name="e_fr_energy">    -14.80008947 </i>
   <i name="e_wo_entrp">    -14.80008947 </i>
   <i name="e_0_energy">      0.00000000 </i>
  </energy>
  <time name="totalsc">    4.68    4.71</time>
  <eigenvalues>
   <array>
    <dimension dim="1">band</dimension>
    <dimension dim="2">kpoint</dimension>
    <dimension dim="3">spin</dimension>
    <field>eigene</field>
    <field>occ</field>
    <set>
     <set comment="spin 1">
      <set comment="kpoint 1">
       <r>  -28.9867    1.0000 </r>
       <r>  -13.7636    1.0000 </r>
       <r>  -11.4672    1.0000 </r>
       <r>  -11.4672    1.0000 </r>
       <r>   -8.7645    1.0000 </r>
       <r>   -1.8522    0.0000 </r>
       <r>   -1.8522    0.0000 </r>
       <r>   -0.2615    0.0000 </r>
       <r>    1.6937    0.0000 </r>
      </set>
     </set>
    </set>
   </array>
  </eigenvalues>
  <separator name="orbital magnetization" >
   <v name="MAGDIPOLOUT">      0.00000000      0.00000000      0.00000000</v>
  </separator>
  <dos>
   <i name="efermi">     -7.74994648 </i>
   <total>
    <array>
     <dimension dim="1">gridpoints</dimension>
     <dimension dim="2">spin</dimension>
     <field>energy</field>
     <field>total</field>
     <field>integrated</field>
     <set>
      <set comment="spin 1">
       <r>   -30.9867     0.0000     0.0000 </r>
       <r>   -30.8711     0.0000     0.0000 </r>
       <r>   -30.7555     0.0000     0.0000 </r>
       <r>   -30.6399     0.0000     0.0000 </r>
       <r>   -30.5243     0.0000     0.0000 </r>
       <r>   -30.4087     0.0000     0.0000 </r>
       <r>   -30.2931     0.0000     0.0000 </r>
       <r>   -30.1775     0.0000     0.0000 </r>
       <r>   -30.0619     0.0000     0.0000 </r>
       <r>   -29.9463     0.0000     0.0000 </r>
       <r>   -29.8307     0.0000     0.0000 </r>
       <r>   -29.7151     0.0000     0.0000 </r>
       <r>   -29.5995     0.0001     0.0000 </r>
       <r>   -29.4839     0.0037     0.0004 </r>
       <r>   -29.3683     0.0565     0.0070 </r>
       <r>   -29.2527     0.4587     0.0600 </r>
       <r>   -29.1371     1.9690     0.2876 </r>
       <r>   -29.0215     4.4819     0.8057 </r>
       <r>   -28.9059     5.4204     1.4323 </r>
       <r>   -28.7903     3.4845     1.8351 </r>
       <r>   -28.6747     1.1894     1.9726 </r>
       <r>   -28.5591     0.2151     1.9975 </r>
       <r>   -28.4435     0.0205     1.9999 </r>
       <r>   -28.3279     0.0010     2.0000 </r>
       <r>   -28.2122     0.0000     2.0000 </r>
       <r>   -28.0966     0.0000     2.0000 </r>
       <r>   -27.9810     0.0000     2.0000 </r>
       <r>   -27.8654     0.0000     2.0000 </r>
       <r>   -27.7498     0.0000     2.0000 </r>
       <r>   -27.6342     0.0000     2.0000 </r>
       <r>   -27.5186     0.0000     2.0000 </r>
       <r>   -27.4030     0.0000     2.0000 </r>
       <r>   -27.2874     0.0000     2.0000 </r>
       <r>   -27.1718     0.0000     2.0000 </r>
       <r>   -27.0562     0.0000     2.0000 </r>
       <r>   -26.9406     0.0000     2.0000 </r>
       <r>   -26.8250     0.0000     2.0000 </r>
       <r>   -26.7094     0.0000     2.0000 </r>
       <r>   -26.5938     0.0000     2.0000 </r>
       <r>   -26.4782     0.0000     2.0000 </r>
       <r>   -26.3626     0.0000     2.0000 </r>
       <r>   -26.2470     0.0000     2.0000 </r>
       <r>   -26.1314     0.0000     2.0000 </r>
       <r>   -26.0158     0.0000     2.0000 </r>
       <r>   -25.9002     0.0000     2.0000 </r>
       <r>   -25.7846     0.0000     2.0000 </r>
       <r>   -25.6690     0.0000     2.0000 </r>
       <r>   -25.5534     0.0000     2.0000 </r>
       <r>   -25.4378     0.0000     2.0000 </r>
       <r>   -25.3222     0.0000     2.0000 </r>
       <r>   -25.2066     0.0000     2.0000 </r>
       <r>   -25.0910     0.0000     2.0000 </r>
       <r>   -24.9754     0.0000     2.0000 </r>
       <r>   -24.8598     0.0000     2.0000 </r>
       <r>   -24.7442     0.0000     2.0000 </r>
       <r>   -24.6286     0.0000     2.0000 </r>
       <r>   -24.5130     0.0000     2.0000 </r>
       <r>   -24.3974     0.0000     2.0000 </r>
       <r>   -24.2818     0.0000     2.0000 </r>
       <r>   -24.1662     0.0000     2.0000 </r>
       <r>   -24.0506     0.0000     2.0000 </r>
       <r>   -23.9350     0.0000     2.0000 </r>
       <r>   -23.8194     0.0000     2.0000 </r>
       <r>   -23.7038     0.0000     2.0000 </r>
       <r>   -23.5882     0.0000     2.0000 </r>
       <r>   -23.4726     0.0000     2.0000 </r>
       <r>   -23.3570     0.0000     2.0000 </r>
       <r>   -23.2414     0.0000     2.0000 </r>
       <r>   -23.1258     0.0000     2.0000 </r>
       <r>   -23.0102     0.0000     2.0000 </r>
       <r>   -22.8946     0.0000     2.0000 </r>
       <r>   -22.7790     0.0000     2.0000 </r>
       <r>   -22.6634     0.0000     2.0000 </r>
       <r>   -22.5478     0.0000     2.0000 </r>
       <r>   -22.4322     0.0000     2.0000 </r>
       <r>   -22.3166     0.0000     2.0000 </r>
       <r>   -22.2010     0.0000     2.0000 </r>
       <r>   -22.0854     0.0000     2.0000 </r>
       <r>   -21.9698     0.0000     2.0000 </r>
       <r>   -21.8542     0.0000     2.0000 </r>
       <r>   -21.7386     0.0000     2.0000 </r>
       <r>   -21.6230     0.0000     2.0000 </r>
       <r>   -21.5074     0.0000     2.0000 </r>
       <r>   -21.3918     0.0000     2.0000 </r>
       <r>   -21.2762     0.0000     2.0000 </r>
       <r>   -21.1606     0.0000     2.0000 </r>
       <r>   -21.0450     0.0000     2.0000 </r>
       <r>   -20.9294     0.0000     2.0000 </r>
       <r>   -20.8138     0.0000     2.0000 </r>
       <r>   -20.6982     0.0000     2.0000 </r>
       <r>   -20.5826     0.0000     2.0000 </r>
       <r>   -20.4670     0.0000     2.0000 </r>
       <r>   -20.3514     0.0000     2.0000 </r>
       <r>   -20.2358     0.0000     2.0000 </r>
       <r>   -20.1202     0.0000     2.0000 </r>
       <r>   -20.0046     0.0000     2.0000 </r>
       <r>   -19.8890     0.0000     2.0000 </r>
       <r>   -19.7734     0.0000     2.0000 </r>
       <r>   -19.6578     0.0000     2.0000 </r>
       <r>   -19.5422     0.0000     2.0000 </r>
       <r>   -19.4266     0.0000     2.0000 </r>
       <r>   -19.3110     0.0000     2.0000 </r>
       <r>   -19.1954     0.0000     2.0000 </r>
       <r>   -19.0798     0.0000     2.0000 </r>
       <r>   -18.9642     0.0000     2.0000 </r>
       <r>   -18.8486     0.0000     2.0000 </r>
       <r>   -18.7330     0.0000     2.0000 </r>
       <r>   -18.6174     0.0000     2.0000 </r>
       <r>   -18.5018     0.0000     2.0000 </r>
       <r>   -18.3862     0.0000     2.0000 </r>
       <r>   -18.2706     0.0000     2.0000 </r>
       <r>   -18.1550     0.0000     2.0000 </r>
       <r>   -18.0393     0.0000     2.0000 </r>
       <r>   -17.9237     0.0000     2.0000 </r>
       <r>   -17.8081     0.0000     2.0000 </r>
       <r>   -17.6925     0.0000     2.0000 </r>
       <r>   -17.5769     0.0000     2.0000 </r>
       <r>   -17.4613     0.0000     2.0000 </r>
       <r>   -17.3457     0.0000     2.0000 </r>
       <r>   -17.2301     0.0000     2.0000 </r>
       <r>   -17.1145     0.0000     2.0000 </r>
       <r>   -16.9989     0.0000     2.0000 </r>
       <r>   -16.8833     0.0000     2.0000 </r>
       <r>   -16.7677     0.0000     2.0000 </r>
       <r>   -16.6521     0.0000     2.0000 </r>
       <r>   -16.5365     0.0000     2.0000 </r>
       <r>   -16.4209     0.0000     2.0000 </r>
       <r>   -16.3053     0.0000     2.0000 </r>
       <r>   -16.1897     0.0000     2.0000 </r>
       <r>   -16.0741     0.0000     2.0000 </r>
       <r>   -15.9585     0.0000     2.0000 </r>
       <r>   -15.8429     0.0000     2.0000 </r>
       <r>   -15.7273     0.0000     2.0000 </r>
       <r>   -15.6117     0.0000     2.0000 </r>
       <r>   -15.4961     0.0000     2.0000 </r>
       <r>   -15.3805     0.0000     2.0000 </r>
       <r>   -15.2649     0.0000     2.0000 </r>
       <r>   -15.1493     0.0000     2.0000 </r>
       <r>   -15.0337     0.0000     2.0000 </r>
       <r>   -14.9181     0.0000     2.0000 </r>
       <r>   -14.8025     0.0000     2.0000 </r>
       <r>   -14.6869     0.0000     2.0000 </r>
       <r>   -14.5713     0.0000     2.0000 </r>
       <r>   -14.4557     0.0000     2.0000 </r>
       <r>   -14.3401     0.0004     2.0000 </r>
       <r>   -14.2245     0.0093     2.0011 </r>
       <r>   -14.1089     0.1168     2.0146 </r>
       <r>   -13.9933     0.7761     2.1043 </r>
       <r>   -13.8777     2.7290     2.4198 </r>
       <r>   -13.7621     5.0926     3.0085 </r>
       <r>   -13.6465     5.0507     3.5924 </r>
       <r>   -13.5309     2.6622     3.9001 </r>
       <r>   -13.4153     0.7447     3.9862 </r>
       <r>   -13.2997     0.1102     3.9990 </r>
       <r>   -13.1841     0.0086     4.0000 </r>
       <r>   -13.0685     0.0004     4.0000 </r>
       <r>   -12.9529     0.0000     4.0000 </r>
       <r>   -12.8373     0.0000     4.0000 </r>
       <r>   -12.7217     0.0000     4.0000 </r>
       <r>   -12.6061     0.0000     4.0000 </r>
       <r>   -12.4905     0.0000     4.0000 </r>
       <r>   -12.3749     0.0000     4.0000 </r>
       <r>   -12.2593     0.0000     4.0000 </r>
       <r>   -12.1437     0.0000     4.0000 </r>
       <r>   -12.0281     0.0012     4.0001 </r>
       <r>   -11.9125     0.0271     4.0033 </r>
       <r>   -11.7969     0.3129     4.0394 </r>
       <r>   -11.6813     1.9076     4.2600 </r>
       <r>   -11.5657     6.1587     4.9719 </r>
       <r>   -11.4501    10.5551     6.1921 </r>
       <r>   -11.3345     9.6150     7.3036 </r>
       <r>   -11.2189     4.6543     7.8417 </r>
       <r>   -11.1033     1.1952     7.9798 </r>
       <r>   -10.9877     0.1624     7.9986 </r>
       <r>   -10.8721     0.0116     7.9999 </r>
       <r>   -10.7565     0.0004     8.0000 </r>
       <r>   -10.6409     0.0000     8.0000 </r>
       <r>   -10.5253     0.0000     8.0000 </r>
       <r>   -10.4097     0.0000     8.0000 </r>
       <r>   -10.2941     0.0000     8.0000 </r>
       <r>   -10.1785     0.0000     8.0000 </r>
       <r>   -10.0629     0.0000     8.0000 </r>
       <r>    -9.9473     0.0000     8.0000 </r>
       <r>    -9.8317     0.0000     8.0000 </r>
       <r>    -9.7161     0.0000     8.0000 </r>
       <r>    -9.6005     0.0000     8.0000 </r>
       <r>    -9.4849     0.0000     8.0000 </r>
       <r>    -9.3693     0.0002     8.0000 </r>
       <r>    -9.2537     0.0045     8.0005 </r>
       <r>    -9.1381     0.0667     8.0083 </r>
       <r>    -9.0225     0.5182     8.0682 </r>
       <r>    -8.9069     2.1281     8.3142 </r>
       <r>    -8.7913     4.6354     8.8500 </r>
       <r>    -8.6757     5.3649     9.4702 </r>
       <r>    -8.5601     3.3005     9.8518 </r>
       <r>    -8.4445     1.0780     9.9764 </r>
       <r>    -8.3289     0.1865     9.9979 </r>
       <r>    -8.2133     0.0170     9.9999 </r>
       <r>    -8.0977     0.0008    10.0000 </r>
       <r>    -7.9821     0.0000    10.0000 </r>
       <r>    -7.8665     0.0000    10.0000 </r>
       <r>    -7.7508     0.0000    10.0000 </r>
       <r>    -7.6352     0.0000    10.0000 </r>
       <r>    -7.5196     0.0000    10.0000 </r>
       <r>    -7.4040     0.0000    10.0000 </r>
       <r>    -7.2884     0.0000    10.0000 </r>
       <r>    -7.1728     0.0000    10.0000 </r>
       <r>    -7.0572     0.0000    10.0000 </r>
       <r>    -6.9416     0.0000    10.0000 </r>
       <r>    -6.8260     0.0000    10.0000 </r>
       <r>    -6.7104     0.0000    10.0000 </r>
       <r>    -6.5948     0.0000    10.0000 </r>
       <r>    -6.4792     0.0000    10.0000 </r>
       <r>    -6.3636     0.0000    10.0000 </r>
       <r>    -6.2480     0.0000    10.0000 </r>
       <r>    -6.1324     0.0000    10.0000 </r>
       <r>    -6.0168     0.0000    10.0000 </r>
       <r>    -5.9012     0.0000    10.0000 </r>
       <r>    -5.7856     0.0000    10.0000 </r>
       <r>    -5.6700     0.0000    10.0000 </r>
       <r>    -5.5544     0.0000    10.0000 </r>
       <r>    -5.4388     0.0000    10.0000 </r>
       <r>    -5.3232     0.0000    10.0000 </r>
       <r>    -5.2076     0.0000    10.0000 </r>
       <r>    -5.0920     0.0000    10.0000 </r>
       <r>    -4.9764     0.0000    10.0000 </r>
       <r>    -4.8608     0.0000    10.0000 </r>
       <r>    -4.7452     0.0000    10.0000 </r>
       <r>    -4.6296     0.0000    10.0000 </r>
       <r>    -4.5140     0.0000    10.0000 </r>
       <r>    -4.3984     0.0000    10.0000 </r>
       <r>    -4.2828     0.0000    10.0000 </r>
       <r>    -4.1672     0.0000    10.0000 </r>
       <r>    -4.0516     0.0000    10.0000 </r>
       <r>    -3.9360     0.0000    10.0000 </r>
       <r>    -3.8204     0.0000    10.0000 </r>
       <r>    -3.7048     0.0000    10.0000 </r>
       <r>    -3.5892     0.0000    10.0000 </r>
       <r>    -3.4736     0.0000    10.0000 </r>
       <r>    -3.3580     0.0000    10.0000 </r>
       <r>    -3.2424     0.0000    10.0000 </r>
       <r>    -3.1268     0.0000    10.0000 </r>
       <r>    -3.0112     0.0000    10.0000 </r>
       <r>    -2.8956     0.0000    10.0000 </r>
       <r>    -2.7800     0.0000    10.0000 </r>
       <r>    -2.6644     0.0000    10.0000 </r>
       <r>    -2.5488     0.0000    10.0000 </r>
       <r>    -2.4332     0.0007    10.0001 </r>
       <r>    -2.3176     0.0166    10.0020 </r>
       <r>    -2.2020     0.2143    10.0268 </r>
       <r>    -2.0864     1.4594    10.1955 </r>
       <r>    -1.9708     5.2598    10.8035 </r>
       <r>    -1.8552    10.0594    11.9664 </r>
       <r>    -1.7396    10.2245    13.1484 </r>
       <r>    -1.6240     5.5232    13.7869 </r>
       <r>    -1.5084     1.5834    13.9699 </r>
       <r>    -1.3928     0.2403    13.9977 </r>
       <r>    -1.2772     0.0192    13.9999 </r>
       <r>    -1.1616     0.0008    14.0000 </r>
       <r>    -1.0460     0.0000    14.0000 </r>
       <r>    -0.9304     0.0000    14.0000 </r>
       <r>    -0.8148     0.0008    14.0001 </r>
       <r>    -0.6992     0.0162    14.0020 </r>
       <r>    -0.5836     0.1798    14.0228 </r>
       <r>    -0.4680     1.0510    14.1443 </r>
       <r>    -0.3524     3.2540    14.5204 </r>
       <r>    -0.2368     5.3484    15.1387 </r>
       <r>    -0.1212     4.6727    15.6789 </r>
       <r>    -0.0056     2.1692    15.9296 </r>
       <r>     0.1100     0.5341    15.9914 </r>
       <r>     0.2256     0.0696    15.9994 </r>
       <r>     0.3412     0.0048    16.0000 </r>
       <r>     0.4568     0.0002    16.0000 </r>
       <r>     0.5724     0.0000    16.0000 </r>
       <r>     0.6880     0.0000    16.0000 </r>
       <r>     0.8036     0.0000    16.0000 </r>
       <r>     0.9192     0.0000    16.0000 </r>
       <r>     1.0348     0.0000    16.0000 </r>
       <r>     1.1504     0.0010    16.0001 </r>
       <r>     1.2660     0.0205    16.0025 </r>
       <r>     1.3816     0.2151    16.0274 </r>
       <r>     1.4972     1.1894    16.1649 </r>
       <r>     1.6128     3.4845    16.5677 </r>
       <r>     1.7284     5.4204    17.1943 </r>
       <r>     1.8440     4.4819    17.7124 </r>
       <r>     1.9596     1.9690    17.9400 </r>
       <r>     2.0752     0.4587    17.9930 </r>
       <r>     2.1908     0.0565    17.9996 </r>
       <r>     2.3064     0.0037    18.0000 </r>
       <r>     2.4220     0.0001    18.0000 </r>
       <r>     2.5377     0.0000    18.0000 </r>
       <r>     2.6533     0.0000    18.0000 </r>
       <r>     2.7689     0.0000    18.0000 </r>
       <r>     2.8845     0.0000    18.0000 </r>
       <r>     3.0001     0.0000    18.0000 </r>
       <r>     3.1157     0.0000    18.0000 </r>
       <r>     3.2313     0.0000    18.0000 </r>
       <r>     3.3469     0.0000    18.0000 </r>
       <r>     3.4625     0.0000    18.0000 </r>
       <r>     3.5781     0.0000    18.0000 </r>
       <r>     3.6937     0.0000    18.0000 </r>
      </set>
     </set>
    </array>
   </total>
   <partial>
    <array>
     <dimension dim="1">gridpoints</dimension>
     <dimension dim="2">spin</dimension>
     <dimension dim="3">ion</dimension>
     <field>energy</field>
     <field>  s</field>
     <field> py</field>
     <field> pz</field>
     <field> px</field>
     <field>dxy</field>
     <field>dyz</field>
     <field>dz2</field>
     <field>dxz</field>
     <field>dx2</field>
     <set>
      <set comment="ion 1">
       <set comment="spin 1">
        <r>   -30.9867     0.0000     0.0000     0.0000     0.0000     0.0000     0.0000     0.0000     0.0000     0.0000 </r>
        <r>   -30.8711     0.0000     0.0000     0.0000     0.0000     0.0000     0.0000     0.0000     0.0000     0.0000 </r>
        <r>   -30.7555     0.0000     0.0000     0.0000     0.0000     0.0000     0.0000     0.0000     0.0000     0.0000 </r>
        <r>   -30.6399     0.0000     0.0000     0.0000     0.0000     0.0000     0.0000     0.0000     0.0000     0.0000 </r>
        <r>   -30.5243     0.0000     0.0000     0.0000     0.0000     0.0000     0.0000     0.0000     0.0000     0.0000 </r>
        <r>   -30.4087     0.0000     0.0000     0.0000     0.0000     0.0000     0.0000     0.0000     0.0000     0.0000 </r>
        <r>   -30.2931     0.0000     0.0000     0.0000     0.0000     0.0000     0.0000     0.0000     0.0000     0.0000 </r>
        <r>   -30.1775     0.0000     0.0000     0.0000     0.0000     0.0000     0.0000     0.0000     0.0000     0.0000 </r>
        <r>   -30.0619     0.0000     0.0000     0.0000     0.0000     0.0000     0.0000     0.0000     0.0000     0.0000 </r>
        <r>   -29.9463     0.0000     0.0000     0.0000     0.0000     0.0000     0.0000     0.0000     0.0000     0.0000 </r>
        <r>   -29.8307     0.0000     0.0000     0.0000     0.0000     0.0000     0.0000     0.0000     0.0000     0.0000 </r>
        <r>   -29.7151     0.0000     0.0000     0.0000     0.0000     0.0000     0.0000     0.0000     0.0000     0.0000 </r>
        <r>   -29.5995     0.0001     0.0000     0.0000     0.0000     0.0000     0.0000     0.0000     0.0000     0.0000 </r>
        <r>   -29.4839     0.0024     0.0000     0.0004     0.0000     0.0000     0.0000     0.0000     0.0000     0.0000 </r>
        <r>   -29.3683     0.0372     0.0000     0.0056     0.0000     0.0000     0.0000     0.0000     0.0000     0.0000 </r>
        <r>   -29.2527     0.3019     0.0000     0.0452     0.0000     0.0000     0.0000     0.0000     0.0000     0.0000 </r>
        <r>   -29.1371     1.2959     0.0000     0.1938     0.0000     0.0000     0.0000     0.0000     0.0000     0.0000 </r>
        <r>   -29.0215     2.9497     0.0000     0.4412     0.0000     0.0000     0.0000     0.0000     0.0000     0.0000 </r>
        <r>   -28.9059     3.5673     0.0000     0.5336     0.0000     0.0000     0.0000     0.0000     0.0000     0.0000 </r>
        <r>   -28.7903     2.2933     0.0000     0.3430     0.0000     0.0000     0.0000     0.0000     0.0000     0.0000 </r>
        <r>   -28.6747     0.7828     0.0000     0.1171     0.0000     0.0000     0.0000     0.0000     0.0000     0.0000 </r>
        <r>   -28.5591     0.1416     0.0000     0.0212     0.0000     0.0000     0.0000     0.0000     0.0000     0.0000 </r>
        <r>   -28.4435     0.0135     0.0000     0.0020     0.0000     0.0000     0.0000     0.0000     0.0000     0.0000 </r>
        <r>   -28.3279     0.0007     0.0000     0.0001     0.0000     0.0000     0.0000     0.0000     0.0000     0.0000 </r>
        <r>   -28.2122     0.0000     0.0000     0.0000     0.0000     0.0000     0.0000     0.0000     0.0000     0.0000 </r>
        <r>   -28.0966     0.0000     0.0000     0.0000     0.0000     0.0000     0.0000     0.0000     0.0000     0.0000 </r>
        <r>   -27.9810     0.0000     0.0000     0.0000     0.0000     0.0000     0.0000     0.0000     0.0000     0.0000 </r>
        <r>   -27.8654     0.0000     0.0000     0.0000     0.0000     0.0000     0.0000     0.0000     0.0000     0.0000 </r>
        <r>   -27.7498     0.0000     0.0000     0.0000     0.0000     0.0000     0.0000     0.0000     0.0000     0.0000 </r>
        <r>   -27.6342     0.0000     0.0000     0.0000     0.0000     0.0000     0.0000     0.0000     0.0000     0.0000 </r>
        <r>   -27.5186     0.0000     0.0000     0.0000     0.0000     0.0000     0.0000     0.0000     0.0000     0.0000 </r>
        <r>   -27.4030     0.0000     0.0000     0.0000     0.0000     0.0000     0.0000     0.0000     0.0000     0.0000 </r>
        <r>   -27.2874     0.0000     0.0000     0.0000     0.0000     0.0000     0.0000     0.0000     0.0000     0.0000 </r>
        <r>   -27.1718     0.0000     0.0000     0.0000     0.0000     0.0000     0.0000     0.0000     0.0000     0.0000 </r>
        <r>   -27.0562     0.0000     0.0000     0.0000     0.0000     0.0000     0.0000     0.0000     0.0000     0.0000 </r>
        <r>   -26.9406     0.0000     0.0000     0.0000     0.0000     0.0000     0.0000     0.0000     0.0000     0.0000 </r>
        <r>   -26.8250     0.0000     0.0000     0.0000     0.0000     0.0000     0.0000     0.0000     0.0000     0.0000 </r>
        <r>   -26.7094     0.0000     0.0000     0.0000     0.0000     0.0000     0.0000     0.0000     0.0000     0.0000 </r>
        <r>   -26.5938     0.0000     0.0000     0.0000     0.0000     0.0000     0.0000     0.0000     0.0000     0.0000 </r>
        <r>   -26.4782     0.0000     0.0000     0.0000     0.0000     0.0000     0.0000     0.0000     0.0000     0.0000 </r>
        <r>   -26.3626     0.0000     0.0000     0.0000     0.0000     0.0000     0.0000     0.0000     0.0000     0.0000 </r>
        <r>   -26.2470     0.0000     0.0000     0.0000     0.0000     0.0000     0.0000     0.0000     0.0000     0.0000 </r>
        <r>   -26.1314     0.0000     0.0000     0.0000     0.0000     0.0000     0.0000     0.0000     0.0000     0.0000 </r>
        <r>   -26.0158     0.0000     0.0000     0.0000     0.0000     0.0000     0.0000     0.0000     0.0000     0.0000 </r>
        <r>   -25.9002     0.0000     0.0000     0.0000     0.0000     0.0000     0.0000     0.0000     0.0000     0.0000 </r>
        <r>   -25.7846     0.0000     0.0000     0.0000     0.0000     0.0000     0.0000     0.0000     0.0000     0.0000 </r>
        <r>   -25.6690     0.0000     0.0000     0.0000     0.0000     0.0000     0.0000     0.0000     0.0000     0.0000 </r>
        <r>   -25.5534     0.0000     0.0000     0.0000     0.0000     0.0000     0.0000     0.0000     0.0000     0.0000 </r>
        <r>   -25.4378     0.0000     0.0000     0.0000     0.0000     0.0000     0.0000     0.0000     0.0000     0.0000 </r>
        <r>   -25.3222     0.0000     0.0000     0.0000     0.0000     0.0000     0.0000     0.0000     0.0000     0.0000 </r>
        <r>   -25.2066     0.0000     0.0000     0.0000     0.0000     0.0000     0.0000     0.0000     0.0000     0.0000 </r>
        <r>   -25.0910     0.0000     0.0000     0.0000     0.0000     0.0000     0.0000     0.0000     0.0000     0.0000 </r>
        <r>   -24.9754     0.0000     0.0000     0.0000     0.0000     0.0000     0.0000     0.0000     0.0000     0.0000 </r>
        <r>   -24.8598     0.0000     0.0000     0.0000     0.0000     0.0000     0.0000     0.0000     0.0000     0.0000 </r>
        <r>   -24.7442     0.0000     0.0000     0.0000     0.0000     0.0000     0.0000     0.0000     0.0000     0.0000 </r>
        <r>   -24.6286     0.0000     0.0000     0.0000     0.0000     0.0000     0.0000     0.0000     0.0000     0.0000 </r>
        <r>   -24.5130     0.0000     0.0000     0.0000     0.0000     0.0000     0.0000     0.0000     0.0000     0.0000 </r>
        <r>   -24.3974     0.0000     0.0000     0.0000     0.0000     0.0000     0.0000     0.0000     0.0000     0.0000 </r>
        <r>   -24.2818     0.0000     0.0000     0.0000     0.0000     0.0000     0.0000     0.0000     0.0000     0.0000 </r>
        <r>   -24.1662     0.0000     0.0000     0.0000     0.0000     0.0000     0.0000     0.0000     0.0000     0.0000 </r>
        <r>   -24.0506     0.0000     0.0000     0.0000     0.0000     0.0000     0.0000     0.0000     0.0000     0.0000 </r>
        <r>   -23.9350     0.0000     0.0000     0.0000     0.0000     0.0000     0.0000     0.0000     0.0000     0.0000 </r>
        <r>   -23.8194     0.0000     0.0000     0.0000     0.0000     0.0000     0.0000     0.0000     0.0000     0.0000 </r>
        <r>   -23.7038     0.0000     0.0000     0.0000     0.0000     0.0000     0.0000     0.0000     0.0000     0.0000 </r>
        <r>   -23.5882     0.0000     0.0000     0.0000     0.0000     0.0000     0.0000     0.0000     0.0000     0.0000 </r>
        <r>   -23.4726     0.0000     0.0000     0.0000     0.0000     0.0000     0.0000     0.0000     0.0000     0.0000 </r>
        <r>   -23.3570     0.0000     0.0000     0.0000     0.0000     0.0000     0.0000     0.0000     0.0000     0.0000 </r>
        <r>   -23.2414     0.0000     0.0000     0.0000     0.0000     0.0000     0.0000     0.0000     0.0000     0.0000 </r>
        <r>   -23.1258     0.0000     0.0000     0.0000     0.0000     0.0000     0.0000     0.0000     0.0000     0.0000 </r>
        <r>   -23.0102     0.0000     0.0000     0.0000     0.0000     0.0000     0.0000     0.0000     0.0000     0.0000 </r>
        <r>   -22.8946     0.0000     0.0000     0.0000     0.0000     0.0000     0.0000     0.0000     0.0000     0.0000 </r>
        <r>   -22.7790     0.0000     0.0000     0.0000     0.0000     0.0000     0.0000     0.0000     0.0000     0.0000 </r>
        <r>   -22.6634     0.0000     0.0000     0.0000     0.0000     0.0000     0.0000     0.0000     0.0000     0.0000 </r>
        <r>   -22.5478     0.0000     0.0000     0.0000     0.0000     0.0000     0.0000     0.0000     0.0000     0.0000 </r>
        <r>   -22.4322     0.0000     0.0000     0.0000     0.0000     0.0000     0.0000     0.0000     0.0000     0.0000 </r>
        <r>   -22.3166     0.0000     0.0000     0.0000     0.0000     0.0000     0.0000     0.0000     0.0000     0.0000 </r>
        <r>   -22.2010     0.0000     0.0000     0.0000     0.0000     0.0000     0.0000     0.0000     0.0000     0.0000 </r>
        <r>   -22.0854     0.0000     0.0000     0.0000     0.0000     0.0000     0.0000     0.0000     0.0000     0.0000 </r>
        <r>   -21.9698     0.0000     0.0000     0.0000     0.0000     0.0000     0.0000     0.0000     0.0000     0.0000 </r>
        <r>   -21.8542     0.0000     0.0000     0.0000     0.0000     0.0000     0.0000     0.0000     0.0000     0.0000 </r>
        <r>   -21.7386     0.0000     0.0000     0.0000     0.0000     0.0000     0.0000     0.0000     0.0000     0.0000 </r>
        <r>   -21.6230     0.0000     0.0000     0.0000     0.0000     0.0000     0.0000     0.0000     0.0000     0.0000 </r>
        <r>   -21.5074     0.0000     0.0000     0.0000     0.0000     0.0000     0.0000     0.0000     0.0000     0.0000 </r>
        <r>   -21.3918     0.0000     0.0000     0.0000     0.0000     0.0000     0.0000     0.0000     0.0000     0.0000 </r>
        <r>   -21.2762     0.0000     0.0000     0.0000     0.0000     0.0000     0.0000     0.0000     0.0000     0.0000 </r>
        <r>   -21.1606     0.0000     0.0000     0.0000     0.0000     0.0000     0.0000     0.0000     0.0000     0.0000 </r>
        <r>   -21.0450     0.0000     0.0000     0.0000     0.0000     0.0000     0.0000     0.0000     0.0000     0.0000 </r>
        <r>   -20.9294     0.0000     0.0000     0.0000     0.0000     0.0000     0.0000     0.0000     0.0000     0.0000 </r>
        <r>   -20.8138     0.0000     0.0000     0.0000     0.0000     0.0000     0.0000     0.0000     0.0000     0.0000 </r>
        <r>   -20.6982     0.0000     0.0000     0.0000     0.0000     0.0000     0.0000     0.0000     0.0000     0.0000 </r>
        <r>   -20.5826     0.0000     0.0000     0.0000     0.0000     0.0000     0.0000     0.0000     0.0000     0.0000 </r>
        <r>   -20.4670     0.0000     0.0000     0.0000     0.0000     0.0000     0.0000     0.0000     0.0000     0.0000 </r>
        <r>   -20.3514     0.0000     0.0000     0.0000     0.0000     0.0000     0.0000     0.0000     0.0000     0.0000 </r>
        <r>   -20.2358     0.0000     0.0000     0.0000     0.0000     0.0000     0.0000     0.0000     0.0000     0.0000 </r>
        <r>   -20.1202     0.0000     0.0000     0.0000     0.0000     0.0000     0.0000     0.0000     0.0000     0.0000 </r>
        <r>   -20.0046     0.0000     0.0000     0.0000     0.0000     0.0000     0.0000     0.0000     0.0000     0.0000 </r>
        <r>   -19.8890     0.0000     0.0000     0.0000     0.0000     0.0000     0.0000     0.0000     0.0000     0.0000 </r>
        <r>   -19.7734     0.0000     0.0000     0.0000     0.0000     0.0000     0.0000     0.0000     0.0000     0.0000 </r>
        <r>   -19.6578     0.0000     0.0000     0.0000     0.0000     0.0000     0.0000     0.0000     0.0000     0.0000 </r>
        <r>   -19.5422     0.0000     0.0000     0.0000     0.0000     0.0000     0.0000     0.0000     0.0000     0.0000 </r>
        <r>   -19.4266     0.0000     0.0000     0.0000     0.0000     0.0000     0.0000     0.0000     0.0000     0.0000 </r>
        <r>   -19.3110     0.0000     0.0000     0.0000     0.0000     0.0000     0.0000     0.0000     0.0000     0.0000 </r>
        <r>   -19.1954     0.0000     0.0000     0.0000     0.0000     0.0000     0.0000     0.0000     0.0000     0.0000 </r>
        <r>   -19.0798     0.0000     0.0000     0.0000     0.0000     0.0000     0.0000     0.0000     0.0000     0.0000 </r>
        <r>   -18.9642     0.0000     0.0000     0.0000     0.0000     0.0000     0.0000     0.0000     0.0000     0.0000 </r>
        <r>   -18.8486     0.0000     0.0000     0.0000     0.0000     0.0000     0.0000     0.0000     0.0000     0.0000 </r>
        <r>   -18.7330     0.0000     0.0000     0.0000     0.0000     0.0000     0.0000     0.0000     0.0000     0.0000 </r>
        <r>   -18.6174     0.0000     0.0000     0.0000     0.0000     0.0000     0.0000     0.0000     0.0000     0.0000 </r>
        <r>   -18.5018     0.0000     0.0000     0.0000     0.0000     0.0000     0.0000     0.0000     0.0000     0.0000 </r>
        <r>   -18.3862     0.0000     0.0000     0.0000     0.0000     0.0000     0.0000     0.0000     0.0000     0.0000 </r>
        <r>   -18.2706     0.0000     0.0000     0.0000     0.0000     0.0000     0.0000     0.0000     0.0000     0.0000 </r>
        <r>   -18.1550     0.0000     0.0000     0.0000     0.0000     0.0000     0.0000     0.0000     0.0000     0.0000 </r>
        <r>   -18.0393     0.0000     0.0000     0.0000     0.0000     0.0000     0.0000     0.0000     0.0000     0.0000 </r>
        <r>   -17.9237     0.0000     0.0000     0.0000     0.0000     0.0000     0.0000     0.0000     0.0000     0.0000 </r>
        <r>   -17.8081     0.0000     0.0000     0.0000     0.0000     0.0000     0.0000     0.0000     0.0000     0.0000 </r>
        <r>   -17.6925     0.0000     0.0000     0.0000     0.0000     0.0000     0.0000     0.0000     0.0000     0.0000 </r>
        <r>   -17.5769     0.0000     0.0000     0.0000     0.0000     0.0000     0.0000     0.0000     0.0000     0.0000 </r>
        <r>   -17.4613     0.0000     0.0000     0.0000     0.0000     0.0000     0.0000     0.0000     0.0000     0.0000 </r>
        <r>   -17.3457     0.0000     0.0000     0.0000     0.0000     0.0000     0.0000     0.0000     0.0000     0.0000 </r>
        <r>   -17.2301     0.0000     0.0000     0.0000     0.0000     0.0000     0.0000     0.0000     0.0000     0.0000 </r>
        <r>   -17.1145     0.0000     0.0000     0.0000     0.0000     0.0000     0.0000     0.0000     0.0000     0.0000 </r>
        <r>   -16.9989     0.0000     0.0000     0.0000     0.0000     0.0000     0.0000     0.0000     0.0000     0.0000 </r>
        <r>   -16.8833     0.0000     0.0000     0.0000     0.0000     0.0000     0.0000     0.0000     0.0000     0.0000 </r>
        <r>   -16.7677     0.0000     0.0000     0.0000     0.0000     0.0000     0.0000     0.0000     0.0000     0.0000 </r>
        <r>   -16.6521     0.0000     0.0000     0.0000     0.0000     0.0000     0.0000     0.0000     0.0000     0.0000 </r>
        <r>   -16.5365     0.0000     0.0000     0.0000     0.0000     0.0000     0.0000     0.0000     0.0000     0.0000 </r>
        <r>   -16.4209     0.0000     0.0000     0.0000     0.0000     0.0000     0.0000     0.0000     0.0000     0.0000 </r>
        <r>   -16.3053     0.0000     0.0000     0.0000     0.0000     0.0000     0.0000     0.0000     0.0000     0.0000 </r>
        <r>   -16.1897     0.0000     0.0000     0.0000     0.0000     0.0000     0.0000     0.0000     0.0000     0.0000 </r>
        <r>   -16.0741     0.0000     0.0000     0.0000     0.0000     0.0000     0.0000     0.0000     0.0000     0.0000 </r>
        <r>   -15.9585     0.0000     0.0000     0.0000     0.0000     0.0000     0.0000     0.0000     0.0000     0.0000 </r>
        <r>   -15.8429     0.0000     0.0000     0.0000     0.0000     0.0000     0.0000     0.0000     0.0000     0.0000 </r>
        <r>   -15.7273     0.0000     0.0000     0.0000     0.0000     0.0000     0.0000     0.0000     0.0000     0.0000 </r>
        <r>   -15.6117     0.0000     0.0000     0.0000     0.0000     0.0000     0.0000     0.0000     0.0000     0.0000 </r>
        <r>   -15.4961     0.0000     0.0000     0.0000     0.0000     0.0000     0.0000     0.0000     0.0000     0.0000 </r>
        <r>   -15.3805     0.0000     0.0000     0.0000     0.0000     0.0000     0.0000     0.0000     0.0000     0.0000 </r>
        <r>   -15.2649     0.0000     0.0000     0.0000     0.0000     0.0000     0.0000     0.0000     0.0000     0.0000 </r>
        <r>   -15.1493     0.0000     0.0000     0.0000     0.0000     0.0000     0.0000     0.0000     0.0000     0.0000 </r>
        <r>   -15.0337     0.0000     0.0000     0.0000     0.0000     0.0000     0.0000     0.0000     0.0000     0.0000 </r>
        <r>   -14.9181     0.0000     0.0000     0.0000     0.0000     0.0000     0.0000     0.0000     0.0000     0.0000 </r>
        <r>   -14.8025     0.0000     0.0000     0.0000     0.0000     0.0000     0.0000     0.0000     0.0000     0.0000 </r>
        <r>   -14.6869     0.0000     0.0000     0.0000     0.0000     0.0000     0.0000     0.0000     0.0000     0.0000 </r>
        <r>   -14.5713     0.0000     0.0000     0.0000     0.0000     0.0000     0.0000     0.0000     0.0000     0.0000 </r>
        <r>   -14.4557     0.0000     0.0000     0.0000     0.0000     0.0000     0.0000     0.0000     0.0000     0.0000 </r>
        <r>   -14.3401     0.0001     0.0000     0.0002     0.0000     0.0000     0.0000     0.0000     0.0000     0.0000 </r>
        <r>   -14.2245     0.0016     0.0000     0.0042     0.0000     0.0000     0.0000     0.0000     0.0000     0.0000 </r>
        <r>   -14.1089     0.0196     0.0000     0.0524     0.0000     0.0000     0.0000     0.0000     0.0000     0.0000 </r>
        <r>   -13.9933     0.1305     0.0000     0.3483     0.0000     0.0000     0.0000     0.0000     0.0000     0.0000 </r>
        <r>   -13.8777     0.4587     0.0000     1.2246     0.0000     0.0000     0.0000     0.0000     0.0000     0.0000 </r>
        <r>   -13.7621     0.8560     0.0000     2.2852     0.0000     0.0000     0.0000     0.0000     0.0000     0.0000 </r>
        <r>   -13.6465     0.8490     0.0000     2.2664     0.0000     0.0000     0.0000     0.0000     0.0000     0.0000 </r>
        <r>   -13.5309     0.4475     0.0000     1.1946     0.0000     0.0000     0.0000     0.0000     0.0000     0.0000 </r>
        <r>   -13.4153     0.1252     0.0000     0.3341     0.0000     0.0000     0.0000     0.0000     0.0000     0.0000 </r>
        <r>   -13.2997     0.0185     0.0000     0.0495     0.0000     0.0000     0.0000     0.0000     0.0000     0.0000 </r>
        <r>   -13.1841     0.0014     0.0000     0.0039     0.0000     0.0000     0.0000     0.0000     0.0000     0.0000 </r>
        <r>   -13.0685     0.0001     0.0000     0.0002     0.0000     0.0000     0.0000     0.0000     0.0000     0.0000 </r>
        <r>   -12.9529     0.0000     0.0000     0.0000     0.0000     0.0000     0.0000     0.0000     0.0000     0.0000 </r>
        <r>   -12.8373     0.0000     0.0000     0.0000     0.0000     0.0000     0.0000     0.0000     0.0000     0.0000 </r>
        <r>   -12.7217     0.0000     0.0000     0.0000     0.0000     0.0000     0.0000     0.0000     0.0000     0.0000 </r>
        <r>   -12.6061     0.0000     0.0000     0.0000     0.0000     0.0000     0.0000     0.0000     0.0000     0.0000 </r>
        <r>   -12.4905     0.0000     0.0000     0.0000     0.0000     0.0000     0.0000     0.0000     0.0000     0.0000 </r>
        <r>   -12.3749     0.0000     0.0000     0.0000     0.0000     0.0000     0.0000     0.0000     0.0000     0.0000 </r>
        <r>   -12.2593     0.0000     0.0000     0.0000     0.0000     0.0000     0.0000     0.0000     0.0000     0.0000 </r>
        <r>   -12.1437     0.0000     0.0000     0.0000     0.0000     0.0000     0.0000     0.0000     0.0000     0.0000 </r>
        <r>   -12.0281     0.0000     0.0003     0.0000     0.0003     0.0000     0.0000     0.0000     0.0000     0.0000 </r>
        <r>   -11.9125     0.0000     0.0074     0.0000     0.0074     0.0000     0.0000     0.0000     0.0000     0.0000 </r>
        <r>   -11.7969     0.0000     0.0854     0.0000     0.0854     0.0000     0.0000     0.0000     0.0000     0.0000 </r>
        <r>   -11.6813     0.0000     0.5210     0.0000     0.5210     0.0000     0.0000     0.0000     0.0000     0.0000 </r>
        <r>   -11.5657     0.0000     1.6819     0.0000     1.6819     0.0000     0.0000     0.0000     0.0000     0.0000 </r>
        <r>   -11.4501     0.0000     2.8826     0.0000     2.8826     0.0000     0.0000     0.0000     0.0000     0.0000 </r>
        <r>   -11.3345     0.0000     2.6258     0.0000     2.6258     0.0000     0.0000     0.0000     0.0000     0.0000 </r>
        <r>   -11.2189     0.0000     1.2711     0.0000     1.2711     0.0000     0.0000     0.0000     0.0000     0.0000 </r>
        <r>   -11.1033     0.0000     0.3264     0.0000     0.3264     0.0000     0.0000     0.0000     0.0000     0.0000 </r>
        <r>   -10.9877     0.0000     0.0443     0.0000     0.0443     0.0000     0.0000     0.0000     0.0000     0.0000 </r>
        <r>   -10.8721     0.0000     0.0032     0.0000     0.0032     0.0000     0.0000     0.0000     0.0000     0.0000 </r>
        <r>   -10.7565     0.0000     0.0001     0.0000     0.0001     0.0000     0.0000     0.0000     0.0000     0.0000 </r>
        <r>   -10.6409     0.0000     0.0000     0.0000     0.0000     0.0000     0.0000     0.0000     0.0000     0.0000 </r>
        <r>   -10.5253     0.0000     0.0000     0.0000     0.0000     0.0000     0.0000     0.0000     0.0000     0.0000 </r>
        <r>   -10.4097     0.0000     0.0000     0.0000     0.0000     0.0000     0.0000     0.0000     0.0000     0.0000 </r>
        <r>   -10.2941     0.0000     0.0000     0.0000     0.0000     0.0000     0.0000     0.0000     0.0000     0.0000 </r>
        <r>   -10.1785     0.0000     0.0000     0.0000     0.0000     0.0000     0.0000     0.0000     0.0000     0.0000 </r>
        <r>   -10.0629     0.0000     0.0000     0.0000     0.0000     0.0000     0.0000     0.0000     0.0000     0.0000 </r>
        <r>    -9.9473     0.0000     0.0000     0.0000     0.0000     0.0000     0.0000     0.0000     0.0000     0.0000 </r>
        <r>    -9.8317     0.0000     0.0000     0.0000     0.0000     0.0000     0.0000     0.0000     0.0000     0.0000 </r>
        <r>    -9.7161     0.0000     0.0000     0.0000     0.0000     0.0000     0.0000     0.0000     0.0000     0.0000 </r>
        <r>    -9.6005     0.0000     0.0000     0.0000     0.0000     0.0000     0.0000     0.0000     0.0000     0.0000 </r>
        <r>    -9.4849     0.0000     0.0000     0.0000     0.0000     0.0000     0.0000     0.0000     0.0000     0.0000 </r>
        <r>    -9.3693     0.0000     0.0000     0.0000     0.0000     0.0000     0.0000     0.0000     0.0000     0.0000 </r>
        <r>    -9.2537     0.0000     0.0000     0.0006     0.0000     0.0000     0.0000     0.0000     0.0000     0.0000 </r>
        <r>    -9.1381     0.0001     0.0000     0.0090     0.0000     0.0000     0.0000     0.0000     0.0000     0.0000 </r>
        <r>    -9.0225     0.0005     0.0000     0.0702     0.0000     0.0000     0.0000     0.0000     0.0000     0.0000 </r>
        <r>    -8.9069     0.0022     0.0000     0.2881     0.0000     0.0000     0.0000     0.0000     0.0000     0.0000 </r>
        <r>    -8.7913     0.0047     0.0000     0.6276     0.0000     0.0000     0.0000     0.0000     0.0000     0.0000 </r>
        <r>    -8.6757     0.0055     0.0000     0.7264     0.0000     0.0000     0.0000     0.0000     0.0000     0.0000 </r>
        <r>    -8.5601     0.0034     0.0000     0.4469     0.0000     0.0000     0.0000     0.0000     0.0000     0.0000 </r>
        <r>    -8.4445     0.0011     0.0000     0.1460     0.0000     0.0000     0.0000     0.0000     0.0000     0.0000 </r>
        <r>    -8.3289     0.0002     0.0000     0.0252     0.0000     0.0000     0.0000     0.0000     0.0000     0.0000 </r>
        <r>    -8.2133     0.0000     0.0000     0.0023     0.0000     0.0000     0.0000     0.0000     0.0000     0.0000 </r>
        <r>    -8.0977     0.0000     0.0000     0.0001     0.0000     0.0000     0.0000     0.0000     0.0000     0.0000 </r>
        <r>    -7.9821     0.0000     0.0000     0.0000     0.0000     0.0000     0.0000     0.0000     0.0000     0.0000 </r>
        <r>    -7.8665     0.0000     0.0000     0.0000     0.0000     0.0000     0.0000     0.0000     0.0000     0.0000 </r>
        <r>    -7.7508     0.0000     0.0000     0.0000     0.0000     0.0000     0.0000     0.0000     0.0000     0.0000 </r>
        <r>    -7.6352     0.0000     0.0000     0.0000     0.0000     0.0000     0.0000     0.0000     0.0000     0.0000 </r>
        <r>    -7.5196     0.0000     0.0000     0.0000     0.0000     0.0000     0.0000     0.0000     0.0000     0.0000 </r>
        <r>    -7.4040     0.0000     0.0000     0.0000     0.0000     0.0000     0.0000     0.0000     0.0000     0.0000 </r>
        <r>    -7.2884     0.0000     0.0000     0.0000     0.0000     0.0000     0.0000     0.0000     0.0000     0.0000 </r>
        <r>    -7.1728     0.0000     0.0000     0.0000     0.0000     0.0000     0.0000     0.0000     0.0000     0.0000 </r>
        <r>    -7.0572     0.0000     0.0000     0.0000     0.0000     0.0000     0.0000     0.0000     0.0000     0.0000 </r>
        <r>    -6.9416     0.0000     0.0000     0.0000     0.0000     0.0000     0.0000     0.0000     0.0000     0.0000 </r>
        <r>    -6.8260     0.0000     0.0000     0.0000     0.0000     0.0000     0.0000     0.0000     0.0000     0.0000 </r>
        <r>    -6.7104     0.0000     0.0000     0.0000     0.0000     0.0000     0.0000     0.0000     0.0000     0.0000 </r>
        <r>    -6.5948     0.0000     0.0000     0.0000     0.0000     0.0000     0.0000     0.0000     0.0000     0.0000 </r>
        <r>    -6.4792     0.0000     0.0000     0.0000     0.0000     0.0000     0.0000     0.0000     0.0000     0.0000 </r>
        <r>    -6.3636     0.0000     0.0000     0.0000     0.0000     0.0000     0.0000     0.0000     0.0000     0.0000 </r>
        <r>    -6.2480     0.0000     0.0000     0.0000     0.0000     0.0000     0.0000     0.0000     0.0000     0.0000 </r>
        <r>    -6.1324     0.0000     0.0000     0.0000     0.0000     0.0000     0.0000     0.0000     0.0000     0.0000 </r>
        <r>    -6.0168     0.0000     0.0000     0.0000     0.0000     0.0000     0.0000     0.0000     0.0000     0.0000 </r>
        <r>    -5.9012     0.0000     0.0000     0.0000     0.0000     0.0000     0.0000     0.0000     0.0000     0.0000 </r>
        <r>    -5.7856     0.0000     0.0000     0.0000     0.0000     0.0000     0.0000     0.0000     0.0000     0.0000 </r>
        <r>    -5.6700     0.0000     0.0000     0.0000     0.0000     0.0000     0.0000     0.0000     0.0000     0.0000 </r>
        <r>    -5.5544     0.0000     0.0000     0.0000     0.0000     0.0000     0.0000     0.0000     0.0000     0.0000 </r>
        <r>    -5.4388     0.0000     0.0000     0.0000     0.0000     0.0000     0.0000     0.0000     0.0000     0.0000 </r>
        <r>    -5.3232     0.0000     0.0000     0.0000     0.0000     0.0000     0.0000     0.0000     0.0000     0.0000 </r>
        <r>    -5.2076     0.0000     0.0000     0.0000     0.0000     0.0000     0.0000     0.0000     0.0000     0.0000 </r>
        <r>    -5.0920     0.0000     0.0000     0.0000     0.0000     0.0000     0.0000     0.0000     0.0000     0.0000 </r>
        <r>    -4.9764     0.0000     0.0000     0.0000     0.0000     0.0000     0.0000     0.0000     0.0000     0.0000 </r>
        <r>    -4.8608     0.0000     0.0000     0.0000     0.0000     0.0000     0.0000     0.0000     0.0000     0.0000 </r>
        <r>    -4.7452     0.0000     0.0000     0.0000     0.0000     0.0000     0.0000     0.0000     0.0000     0.0000 </r>
        <r>    -4.6296     0.0000     0.0000     0.0000     0.0000     0.0000     0.0000     0.0000     0.0000     0.0000 </r>
        <r>    -4.5140     0.0000     0.0000     0.0000     0.0000     0.0000     0.0000     0.0000     0.0000     0.0000 </r>
        <r>    -4.3984     0.0000     0.0000     0.0000     0.0000     0.0000     0.0000     0.0000     0.0000     0.0000 </r>
        <r>    -4.2828     0.0000     0.0000     0.0000     0.0000     0.0000     0.0000     0.0000     0.0000     0.0000 </r>
        <r>    -4.1672     0.0000     0.0000     0.0000     0.0000     0.0000     0.0000     0.0000     0.0000     0.0000 </r>
        <r>    -4.0516     0.0000     0.0000     0.0000     0.0000     0.0000     0.0000     0.0000     0.0000     0.0000 </r>
        <r>    -3.9360     0.0000     0.0000     0.0000     0.0000     0.0000     0.0000     0.0000     0.0000     0.0000 </r>
        <r>    -3.8204     0.0000     0.0000     0.0000     0.0000     0.0000     0.0000     0.0000     0.0000     0.0000 </r>
        <r>    -3.7048     0.0000     0.0000     0.0000     0.0000     0.0000     0.0000     0.0000     0.0000     0.0000 </r>
        <r>    -3.5892     0.0000     0.0000     0.0000     0.0000     0.0000     0.0000     0.0000     0.0000     0.0000 </r>
        <r>    -3.4736     0.0000     0.0000     0.0000     0.0000     0.0000     0.0000     0.0000     0.0000     0.0000 </r>
        <r>    -3.3580     0.0000     0.0000     0.0000     0.0000     0.0000     0.0000     0.0000     0.0000     0.0000 </r>
        <r>    -3.2424     0.0000     0.0000     0.0000     0.0000     0.0000     0.0000     0.0000     0.0000     0.0000 </r>
        <r>    -3.1268     0.0000     0.0000     0.0000     0.0000     0.0000     0.0000     0.0000     0.0000     0.0000 </r>
        <r>    -3.0112     0.0000     0.0000     0.0000     0.0000     0.0000     0.0000     0.0000     0.0000     0.0000 </r>
        <r>    -2.8956     0.0000     0.0000     0.0000     0.0000     0.0000     0.0000     0.0000     0.0000     0.0000 </r>
        <r>    -2.7800     0.0000     0.0000     0.0000     0.0000     0.0000     0.0000     0.0000     0.0000     0.0000 </r>
        <r>    -2.6644     0.0000     0.0000     0.0000     0.0000     0.0000     0.0000     0.0000     0.0000     0.0000 </r>
        <r>    -2.5488     0.0000     0.0000     0.0000     0.0000     0.0000     0.0000     0.0000     0.0000     0.0000 </r>
        <r>    -2.4332     0.0000     0.0001     0.0000     0.0001     0.0000     0.0000     0.0000     0.0000     0.0000 </r>
        <r>    -2.3176     0.0000     0.0017     0.0000     0.0017     0.0000     0.0000     0.0000     0.0000     0.0000 </r>
        <r>    -2.2020     0.0000     0.0220     0.0000     0.0220     0.0000     0.0000     0.0000     0.0000     0.0000 </r>
        <r>    -2.0864     0.0000     0.1498     0.0000     0.1498     0.0000     0.0000     0.0000     0.0000     0.0000 </r>
        <r>    -1.9708     0.0000     0.5401     0.0000     0.5401     0.0000     0.0000     0.0000     0.0000     0.0000 </r>
        <r>    -1.8552     0.0000     1.0329     0.0000     1.0329     0.0000     0.0000     0.0000     0.0000     0.0000 </r>
        <r>    -1.7396     0.0000     1.0498     0.0000     1.0498     0.0000     0.0000     0.0000     0.0000     0.0000 </r>
        <r>    -1.6240     0.0000     0.5671     0.0000     0.5671     0.0000     0.0000     0.0000     0.0000     0.0000 </r>
        <r>    -1.5084     0.0000     0.1626     0.0000     0.1626     0.0000     0.0000     0.0000     0.0000     0.0000 </r>
        <r>    -1.3928     0.0000     0.0247     0.0000     0.0247     0.0000     0.0000     0.0000     0.0000     0.0000 </r>
        <r>    -1.2772     0.0000     0.0020     0.0000     0.0020     0.0000     0.0000     0.0000     0.0000     0.0000 </r>
        <r>    -1.1616     0.0000     0.0001     0.0000     0.0001     0.0000     0.0000     0.0000     0.0000     0.0000 </r>
        <r>    -1.0460     0.0000     0.0000     0.0000     0.0000     0.0000     0.0000     0.0000     0.0000     0.0000 </r>
        <r>    -0.9304     0.0000     0.0000     0.0000     0.0000     0.0000     0.0000     0.0000     0.0000     0.0000 </r>
        <r>    -0.8148     0.0000     0.0000     0.0000     0.0000     0.0000     0.0000     0.0000     0.0000     0.0000 </r>
        <r>    -0.6992     0.0001     0.0000     0.0001     0.0000     0.0000     0.0000     0.0000     0.0000     0.0000 </r>
        <r>    -0.5836     0.0007     0.0000     0.0007     0.0000     0.0000     0.0000     0.0000     0.0000     0.0000 </r>
        <r>    -0.4680     0.0038     0.0000     0.0039     0.0000     0.0000     0.0000     0.0000     0.0000     0.0000 </r>
        <r>    -0.3524     0.0119     0.0000     0.0120     0.0000     0.0000     0.0000     0.0000     0.0000     0.0000 </r>
        <r>    -0.2368     0.0196     0.0000     0.0197     0.0000     0.0000     0.0000     0.0000     0.0000     0.0000 </r>
        <r>    -0.1212     0.0171     0.0000     0.0172     0.0000     0.0000     0.0000     0.0000     0.0000     0.0000 </r>
        <r>    -0.0056     0.0079     0.0000     0.0080     0.0000     0.0000     0.0000     0.0000     0.0000     0.0000 </r>
        <r>     0.1100     0.0020     0.0000     0.0020     0.0000     0.0000     0.0000     0.0000     0.0000     0.0000 </r>
        <r>     0.2256     0.0003     0.0000     0.0003     0.0000     0.0000     0.0000     0.0000     0.0000     0.0000 </r>
        <r>     0.3412     0.0000     0.0000     0.0000     0.0000     0.0000     0.0000     0.0000     0.0000     0.0000 </r>
        <r>     0.4568     0.0000     0.0000     0.0000     0.0000     0.0000     0.0000     0.0000     0.0000     0.0000 </r>
        <r>     0.5724     0.0000     0.0000     0.0000     0.0000     0.0000     0.0000     0.0000     0.0000     0.0000 </r>
        <r>     0.6880     0.0000     0.0000     0.0000     0.0000     0.0000     0.0000     0.0000     0.0000     0.0000 </r>
        <r>     0.8036     0.0000     0.0000     0.0000     0.0000     0.0000     0.0000     0.0000     0.0000     0.0000 </r>
        <r>     0.9192     0.0000     0.0000     0.0000     0.0000     0.0000     0.0000     0.0000     0.0000     0.0000 </r>
        <r>     1.0348     0.0000     0.0000     0.0000     0.0000     0.0000     0.0000     0.0000     0.0000     0.0000 </r>
        <r>     1.1504     0.0000     0.0000     0.0000     0.0000     0.0000     0.0000     0.0000     0.0000     0.0000 </r>
        <r>     1.2660     0.0002     0.0000     0.0000     0.0000     0.0000     0.0000     0.0000     0.0000     0.0000 </r>
        <r>     1.3816     0.0020     0.0000     0.0000     0.0000     0.0000     0.0000     0.0000     0.0000     0.0000 </r>
        <r>     1.4972     0.0111     0.0000     0.0003     0.0000     0.0000     0.0000     0.0000     0.0000     0.0000 </r>
        <r>     1.6128     0.0325     0.0000     0.0008     0.0000     0.0000     0.0000     0.0000     0.0000     0.0000 </r>
        <r>     1.7284     0.0506     0.0000     0.0012     0.0000     0.0000     0.0000     0.0000     0.0000     0.0000 </r>
        <r>     1.8440     0.0418     0.0000     0.0010     0.0000     0.0000     0.0000     0.0000     0.0000     0.0000 </r>
        <r>     1.9596     0.0184     0.0000     0.0004     0.0000     0.0000     0.0000     0.0000     0.0000     0.0000 </r>
        <r>     2.0752     0.0043     0.0000     0.0001     0.0000     0.0000     0.0000     0.0000     0.0000     0.0000 </r>
        <r>     2.1908     0.0005     0.0000     0.0000     0.0000     0.0000     0.0000     0.0000     0.0000     0.0000 </r>
        <r>     2.3064     0.0000     0.0000     0.0000     0.0000     0.0000     0.0000     0.0000     0.0000     0.0000 </r>
        <r>     2.4220     0.0000     0.0000     0.0000     0.0000     0.0000     0.0000     0.0000     0.0000     0.0000 </r>
        <r>     2.5377     0.0000     0.0000     0.0000     0.0000     0.0000     0.0000     0.0000     0.0000     0.0000 </r>
        <r>     2.6533     0.0000     0.0000     0.0000     0.0000     0.0000     0.0000     0.0000     0.0000     0.0000 </r>
        <r>     2.7689     0.0000     0.0000     0.0000     0.0000     0.0000     0.0000     0.0000     0.0000     0.0000 </r>
        <r>     2.8845     0.0000     0.0000     0.0000     0.0000     0.0000     0.0000     0.0000     0.0000     0.0000 </r>
        <r>     3.0001     0.0000     0.0000     0.0000     0.0000     0.0000     0.0000     0.0000     0.0000     0.0000 </r>
        <r>     3.1157     0.0000     0.0000     0.0000     0.0000     0.0000     0.0000     0.0000     0.0000     0.0000 </r>
        <r>     3.2313     0.0000     0.0000     0.0000     0.0000     0.0000     0.0000     0.0000     0.0000     0.0000 </r>
        <r>     3.3469     0.0000     0.0000     0.0000     0.0000     0.0000     0.0000     0.0000     0.0000     0.0000 </r>
        <r>     3.4625     0.0000     0.0000     0.0000     0.0000     0.0000     0.0000     0.0000     0.0000     0.0000 </r>
        <r>     3.5781     0.0000     0.0000     0.0000     0.0000     0.0000     0.0000     0.0000     0.0000     0.0000 </r>
        <r>     3.6937     0.0000     0.0000     0.0000     0.0000     0.0000     0.0000     0.0000     0.0000     0.0000 </r>
       </set>
      </set>
      <set comment="ion 2">
       <set comment="spin 1">
        <r>   -30.9867     0.0000     0.0000     0.0000     0.0000     0.0000     0.0000     0.0000     0.0000     0.0000 </r>
        <r>   -30.8711     0.0000     0.0000     0.0000     0.0000     0.0000     0.0000     0.0000     0.0000     0.0000 </r>
        <r>   -30.7555     0.0000     0.0000     0.0000     0.0000     0.0000     0.0000     0.0000     0.0000     0.0000 </r>
        <r>   -30.6399     0.0000     0.0000     0.0000     0.0000     0.0000     0.0000     0.0000     0.0000     0.0000 </r>
        <r>   -30.5243     0.0000     0.0000     0.0000     0.0000     0.0000     0.0000     0.0000     0.0000     0.0000 </r>
        <r>   -30.4087     0.0000     0.0000     0.0000     0.0000     0.0000     0.0000     0.0000     0.0000     0.0000 </r>
        <r>   -30.2931     0.0000     0.0000     0.0000     0.0000     0.0000     0.0000     0.0000     0.0000     0.0000 </r>
        <r>   -30.1775     0.0000     0.0000     0.0000     0.0000     0.0000     0.0000     0.0000     0.0000     0.0000 </r>
        <r>   -30.0619     0.0000     0.0000     0.0000     0.0000     0.0000     0.0000     0.0000     0.0000     0.0000 </r>
        <r>   -29.9463     0.0000     0.0000     0.0000     0.0000     0.0000     0.0000     0.0000     0.0000     0.0000 </r>
        <r>   -29.8307     0.0000     0.0000     0.0000     0.0000     0.0000     0.0000     0.0000     0.0000     0.0000 </r>
        <r>   -29.7151     0.0000     0.0000     0.0000     0.0000     0.0000     0.0000     0.0000     0.0000     0.0000 </r>
        <r>   -29.5995     0.0000     0.0000     0.0000     0.0000     0.0000     0.0000     0.0000     0.0000     0.0000 </r>
        <r>   -29.4839     0.0006     0.0000     0.0005     0.0000     0.0000     0.0000     0.0000     0.0000     0.0000 </r>
        <r>   -29.3683     0.0091     0.0000     0.0071     0.0000     0.0000     0.0000     0.0000     0.0000     0.0000 </r>
        <r>   -29.2527     0.0741     0.0000     0.0579     0.0000     0.0000     0.0000     0.0000     0.0000     0.0000 </r>
        <r>   -29.1371     0.3181     0.0000     0.2486     0.0000     0.0000     0.0000     0.0000     0.0000     0.0000 </r>
        <r>   -29.0215     0.7241     0.0000     0.5660     0.0000     0.0000     0.0000     0.0000     0.0000     0.0000 </r>
        <r>   -28.9059     0.8757     0.0000     0.6845     0.0000     0.0000     0.0000     0.0000     0.0000     0.0000 </r>
        <r>   -28.7903     0.5629     0.0000     0.4400     0.0000     0.0000     0.0000     0.0000     0.0000     0.0000 </r>
        <r>   -28.6747     0.1922     0.0000     0.1502     0.0000     0.0000     0.0000     0.0000     0.0000     0.0000 </r>
        <r>   -28.5591     0.0347     0.0000     0.0272     0.0000     0.0000     0.0000     0.0000     0.0000     0.0000 </r>
        <r>   -28.4435     0.0033     0.0000     0.0026     0.0000     0.0000     0.0000     0.0000     0.0000     0.0000 </r>
        <r>   -28.3279     0.0002     0.0000     0.0001     0.0000     0.0000     0.0000     0.0000     0.0000     0.0000 </r>
        <r>   -28.2122     0.0000     0.0000     0.0000     0.0000     0.0000     0.0000     0.0000     0.0000     0.0000 </r>
        <r>   -28.0966     0.0000     0.0000     0.0000     0.0000     0.0000     0.0000     0.0000     0.0000     0.0000 </r>
        <r>   -27.9810     0.0000     0.0000     0.0000     0.0000     0.0000     0.0000     0.0000     0.0000     0.0000 </r>
        <r>   -27.8654     0.0000     0.0000     0.0000     0.0000     0.0000     0.0000     0.0000     0.0000     0.0000 </r>
        <r>   -27.7498     0.0000     0.0000     0.0000     0.0000     0.0000     0.0000     0.0000     0.0000     0.0000 </r>
        <r>   -27.6342     0.0000     0.0000     0.0000     0.0000     0.0000     0.0000     0.0000     0.0000     0.0000 </r>
        <r>   -27.5186     0.0000     0.0000     0.0000     0.0000     0.0000     0.0000     0.0000     0.0000     0.0000 </r>
        <r>   -27.4030     0.0000     0.0000     0.0000     0.0000     0.0000     0.0000     0.0000     0.0000     0.0000 </r>
        <r>   -27.2874     0.0000     0.0000     0.0000     0.0000     0.0000     0.0000     0.0000     0.0000     0.0000 </r>
        <r>   -27.1718     0.0000     0.0000     0.0000     0.0000     0.0000     0.0000     0.0000     0.0000     0.0000 </r>
        <r>   -27.0562     0.0000     0.0000     0.0000     0.0000     0.0000     0.0000     0.0000     0.0000     0.0000 </r>
        <r>   -26.9406     0.0000     0.0000     0.0000     0.0000     0.0000     0.0000     0.0000     0.0000     0.0000 </r>
        <r>   -26.8250     0.0000     0.0000     0.0000     0.0000     0.0000     0.0000     0.0000     0.0000     0.0000 </r>
        <r>   -26.7094     0.0000     0.0000     0.0000     0.0000     0.0000     0.0000     0.0000     0.0000     0.0000 </r>
        <r>   -26.5938     0.0000     0.0000     0.0000     0.0000     0.0000     0.0000     0.0000     0.0000     0.0000 </r>
        <r>   -26.4782     0.0000     0.0000     0.0000     0.0000     0.0000     0.0000     0.0000     0.0000     0.0000 </r>
        <r>   -26.3626     0.0000     0.0000     0.0000     0.0000     0.0000     0.0000     0.0000     0.0000     0.0000 </r>
        <r>   -26.2470     0.0000     0.0000     0.0000     0.0000     0.0000     0.0000     0.0000     0.0000     0.0000 </r>
        <r>   -26.1314     0.0000     0.0000     0.0000     0.0000     0.0000     0.0000     0.0000     0.0000     0.0000 </r>
        <r>   -26.0158     0.0000     0.0000     0.0000     0.0000     0.0000     0.0000     0.0000     0.0000     0.0000 </r>
        <r>   -25.9002     0.0000     0.0000     0.0000     0.0000     0.0000     0.0000     0.0000     0.0000     0.0000 </r>
        <r>   -25.7846     0.0000     0.0000     0.0000     0.0000     0.0000     0.0000     0.0000     0.0000     0.0000 </r>
        <r>   -25.6690     0.0000     0.0000     0.0000     0.0000     0.0000     0.0000     0.0000     0.0000     0.0000 </r>
        <r>   -25.5534     0.0000     0.0000     0.0000     0.0000     0.0000     0.0000     0.0000     0.0000     0.0000 </r>
        <r>   -25.4378     0.0000     0.0000     0.0000     0.0000     0.0000     0.0000     0.0000     0.0000     0.0000 </r>
        <r>   -25.3222     0.0000     0.0000     0.0000     0.0000     0.0000     0.0000     0.0000     0.0000     0.0000 </r>
        <r>   -25.2066     0.0000     0.0000     0.0000     0.0000     0.0000     0.0000     0.0000     0.0000     0.0000 </r>
        <r>   -25.0910     0.0000     0.0000     0.0000     0.0000     0.0000     0.0000     0.0000     0.0000     0.0000 </r>
        <r>   -24.9754     0.0000     0.0000     0.0000     0.0000     0.0000     0.0000     0.0000     0.0000     0.0000 </r>
        <r>   -24.8598     0.0000     0.0000     0.0000     0.0000     0.0000     0.0000     0.0000     0.0000     0.0000 </r>
        <r>   -24.7442     0.0000     0.0000     0.0000     0.0000     0.0000     0.0000     0.0000     0.0000     0.0000 </r>
        <r>   -24.6286     0.0000     0.0000     0.0000     0.0000     0.0000     0.0000     0.0000     0.0000     0.0000 </r>
        <r>   -24.5130     0.0000     0.0000     0.0000     0.0000     0.0000     0.0000     0.0000     0.0000     0.0000 </r>
        <r>   -24.3974     0.0000     0.0000     0.0000     0.0000     0.0000     0.0000     0.0000     0.0000     0.0000 </r>
        <r>   -24.2818     0.0000     0.0000     0.0000     0.0000     0.0000     0.0000     0.0000     0.0000     0.0000 </r>
        <r>   -24.1662     0.0000     0.0000     0.0000     0.0000     0.0000     0.0000     0.0000     0.0000     0.0000 </r>
        <r>   -24.0506     0.0000     0.0000     0.0000     0.0000     0.0000     0.0000     0.0000     0.0000     0.0000 </r>
        <r>   -23.9350     0.0000     0.0000     0.0000     0.0000     0.0000     0.0000     0.0000     0.0000     0.0000 </r>
        <r>   -23.8194     0.0000     0.0000     0.0000     0.0000     0.0000     0.0000     0.0000     0.0000     0.0000 </r>
        <r>   -23.7038     0.0000     0.0000     0.0000     0.0000     0.0000     0.0000     0.0000     0.0000     0.0000 </r>
        <r>   -23.5882     0.0000     0.0000     0.0000     0.0000     0.0000     0.0000     0.0000     0.0000     0.0000 </r>
[...]
        <r>   -10.4097     0.0000     0.0000     0.0000     0.0000     0.0000     0.0000     0.0000     0.0000     0.0000 </r>
        <r>   -10.2941     0.0000     0.0000     0.0000     0.0000     0.0000     0.0000     0.0000     0.0000     0.0000 </r>
        <r>   -10.1785     0.0000     0.0000     0.0000     0.0000     0.0000     0.0000     0.0000     0.0000     0.0000 </r>
        <r>   -10.0629     0.0000     0.0000     0.0000     0.0000     0.0000     0.0000     0.0000     0.0000     0.0000 </r>
        <r>    -9.9473     0.0000     0.0000     0.0000     0.0000     0.0000     0.0000     0.0000     0.0000     0.0000 </r>
        <r>    -9.8317     0.0000     0.0000     0.0000     0.0000     0.0000     0.0000     0.0000     0.0000     0.0000 </r>
        <r>    -9.7161     0.0000     0.0000     0.0000     0.0000     0.0000     0.0000     0.0000     0.0000     0.0000 </r>
        <r>    -9.6005     0.0000     0.0000     0.0000     0.0000     0.0000     0.0000     0.0000     0.0000     0.0000 </r>
        <r>    -9.4849     0.0000     0.0000     0.0000     0.0000     0.0000     0.0000     0.0000     0.0000     0.0000 </r>
        <r>    -9.3693     0.0000     0.0000     0.0000     0.0000     0.0000     0.0000     0.0000     0.0000     0.0000 </r>
        <r>    -9.2537     0.0008     0.0000     0.0012     0.0000     0.0000     0.0000     0.0000     0.0000     0.0000 </r>
        <r>    -9.1381     0.0114     0.0000     0.0174     0.0000     0.0000     0.0000     0.0000     0.0000     0.0000 </r>
        <r>    -9.0225     0.0889     0.0000     0.1351     0.0000     0.0000     0.0000     0.0000     0.0000     0.0000 </r>
        <r>    -8.9069     0.3651     0.0000     0.5549     0.0000     0.0000     0.0000     0.0000     0.0000     0.0000 </r>
        <r>    -8.7913     0.7952     0.0000     1.2086     0.0000     0.0000     0.0000     0.0000     0.0000     0.0000 </r>
        <r>    -8.6757     0.9204     0.0000     1.3988     0.0000     0.0000     0.0000     0.0000     0.0000     0.0000 </r>
        <r>    -8.5601     0.5662     0.0000     0.8606     0.0000     0.0000     0.0000     0.0000     0.0000     0.0000 </r>
        <r>    -8.4445     0.1849     0.0000     0.2811     0.0000     0.0000     0.0000     0.0000     0.0000     0.0000 </r>
        <r>    -8.3289     0.0320     0.0000     0.0486     0.0000     0.0000     0.0000     0.0000     0.0000     0.0000 </r>
        <r>    -8.2133     0.0029     0.0000     0.0044     0.0000     0.0000     0.0000     0.0000     0.0000     0.0000 </r>
        <r>    -8.0977     0.0001     0.0000     0.0002     0.0000     0.0000     0.0000     0.0000     0.0000     0.0000 </r>
        <r>    -7.9821     0.0000     0.0000     0.0000     0.0000     0.0000     0.0000     0.0000     0.0000     0.0000 </r>
        <r>    -7.8665     0.0000     0.0000     0.0000     0.0000     0.0000     0.0000     0.0000     0.0000     0.0000 </r>
        <r>    -7.7508     0.0000     0.0000     0.0000     0.0000     0.0000     0.0000     0.0000     0.0000     0.0000 </r>
        <r>    -7.6352     0.0000     0.0000     0.0000     0.0000     0.0000     0.0000     0.0000     0.0000     0.0000 </r>
        <r>    -7.5196     0.0000     0.0000     0.0000     0.0000     0.0000     0.0000     0.0000     0.0000     0.0000 </r>
        <r>    -7.4040     0.0000     0.0000     0.0000     0.0000     0.0000     0.0000     0.0000     0.0000     0.0000 </r>
        <r>    -7.2884     0.0000     0.0000     0.0000     0.0000     0.0000     0.0000     0.0000     0.0000     0.0000 </r>
        <r>    -7.1728     0.0000     0.0000     0.0000     0.0000     0.0000     0.0000     0.0000     0.0000     0.0000 </r>
        <r>    -7.0572     0.0000     0.0000     0.0000     0.0000     0.0000     0.0000     0.0000     0.0000     0.0000 </r>
        <r>    -6.9416     0.0000     0.0000     0.0000     0.0000     0.0000     0.0000     0.0000     0.0000     0.0000 </r>
        <r>    -6.8260     0.0000     0.0000     0.0000     0.0000     0.0000     0.0000     0.0000     0.0000     0.0000 </r>
        <r>    -6.7104     0.0000     0.0000     0.0000     0.0000     0.0000     0.0000     0.0000     0.0000     0.0000 </r>
        <r>    -6.5948     0.0000     0.0000     0.0000     0.0000     0.0000     0.0000     0.0000     0.0000     0.0000 </r>
        <r>    -6.4792     0.0000     0.0000     0.0000     0.0000     0.0000     0.0000     0.0000     0.0000     0.0000 </r>
        <r>    -6.3636     0.0000     0.0000     0.0000     0.0000     0.0000     0.0000     0.0000     0.0000     0.0000 </r>
        <r>    -6.2480     0.0000     0.0000     0.0000     0.0000     0.0000     0.0000     0.0000     0.0000     0.0000 </r>
        <r>    -6.1324     0.0000     0.0000     0.0000     0.0000     0.0000     0.0000     0.0000     0.0000     0.0000 </r>
        <r>    -6.0168     0.0000     0.0000     0.0000     0.0000     0.0000     0.0000     0.0000     0.0000     0.0000 </r>
        <r>    -5.9012     0.0000     0.0000     0.0000     0.0000     0.0000     0.0000     0.0000     0.0000     0.0000 </r>
        <r>    -5.7856     0.0000     0.0000     0.0000     0.0000     0.0000     0.0000     0.0000     0.0000     0.0000 </r>
        <r>    -5.6700     0.0000     0.0000     0.0000     0.0000     0.0000     0.0000     0.0000     0.0000     0.0000 </r>
        <r>    -5.5544     0.0000     0.0000     0.0000     0.0000     0.0000     0.0000     0.0000     0.0000     0.0000 </r>
        <r>    -5.4388     0.0000     0.0000     0.0000     0.0000     0.0000     0.0000     0.0000     0.0000     0.0000 </r>
        <r>    -5.3232     0.0000     0.0000     0.0000     0.0000     0.0000     0.0000     0.0000     0.0000     0.0000 </r>
        <r>    -5.2076     0.0000     0.0000     0.0000     0.0000     0.0000     0.0000     0.0000     0.0000     0.0000 </r>
        <r>    -5.0920     0.0000     0.0000     0.0000     0.0000     0.0000     0.0000     0.0000     0.0000     0.0000 </r>
        <r>    -4.9764     0.0000     0.0000     0.0000     0.0000     0.0000     0.0000     0.0000     0.0000     0.0000 </r>
        <r>    -4.8608     0.0000     0.0000     0.0000     0.0000     0.0000     0.0000     0.0000     0.0000     0.0000 </r>
        <r>    -4.7452     0.0000     0.0000     0.0000     0.0000     0.0000     0.0000     0.0000     0.0000     0.0000 </r>
        <r>    -4.6296     0.0000     0.0000     0.0000     0.0000     0.0000     0.0000     0.0000     0.0000     0.0000 </r>
        <r>    -4.5140     0.0000     0.0000     0.0000     0.0000     0.0000     0.0000     0.0000     0.0000     0.0000 </r>
        <r>    -4.3984     0.0000     0.0000     0.0000     0.0000     0.0000     0.0000     0.0000     0.0000     0.0000 </r>
        <r>    -4.2828     0.0000     0.0000     0.0000     0.0000     0.0000     0.0000     0.0000     0.0000     0.0000 </r>
        <r>    -4.1672     0.0000     0.0000     0.0000     0.0000     0.0000     0.0000     0.0000     0.0000     0.0000 </r>
        <r>    -4.0516     0.0000     0.0000     0.0000     0.0000     0.0000     0.0000     0.0000     0.0000     0.0000 </r>
        <r>    -3.9360     0.0000     0.0000     0.0000     0.0000     0.0000     0.0000     0.0000     0.0000     0.0000 </r>
        <r>    -3.8204     0.0000     0.0000     0.0000     0.0000     0.0000     0.0000     0.0000     0.0000     0.0000 </r>
        <r>    -3.7048     0.0000     0.0000     0.0000     0.0000     0.0000     0.0000     0.0000     0.0000     0.0000 </r>
        <r>    -3.5892     0.0000     0.0000     0.0000     0.0000     0.0000     0.0000     0.0000     0.0000     0.0000 </r>
        <r>    -3.4736     0.0000     0.0000     0.0000     0.0000     0.0000     0.0000     0.0000     0.0000     0.0000 </r>
        <r>    -3.3580     0.0000     0.0000     0.0000     0.0000     0.0000     0.0000     0.0000     0.0000     0.0000 </r>
        <r>    -3.2424     0.0000     0.0000     0.0000     0.0000     0.0000     0.0000     0.0000     0.0000     0.0000 </r>
        <r>    -3.1268     0.0000     0.0000     0.0000     0.0000     0.0000     0.0000     0.0000     0.0000     0.0000 </r>
        <r>    -3.0112     0.0000     0.0000     0.0000     0.0000     0.0000     0.0000     0.0000     0.0000     0.0000 </r>
        <r>    -2.8956     0.0000     0.0000     0.0000     0.0000     0.0000     0.0000     0.0000     0.0000     0.0000 </r>
        <r>    -2.7800     0.0000     0.0000     0.0000     0.0000     0.0000     0.0000     0.0000     0.0000     0.0000 </r>
        <r>    -2.6644     0.0000     0.0000     0.0000     0.0000     0.0000     0.0000     0.0000     0.0000     0.0000 </r>
        <r>    -2.5488     0.0000     0.0000     0.0000     0.0000     0.0000     0.0000     0.0000     0.0000     0.0000 </r>
        <r>    -2.4332     0.0000     0.0001     0.0000     0.0001     0.0000     0.0000     0.0000     0.0000     0.0000 </r>
        <r>    -2.3176     0.0000     0.0026     0.0000     0.0026     0.0000     0.0000     0.0000     0.0000     0.0000 </r>
        <r>    -2.2020     0.0000     0.0336     0.0000     0.0336     0.0000     0.0000     0.0000     0.0000     0.0000 </r>
        <r>    -2.0864     0.0000     0.2285     0.0000     0.2285     0.0000     0.0000     0.0000     0.0000     0.0000 </r>
        <r>    -1.9708     0.0000     0.8237     0.0000     0.8237     0.0000     0.0000     0.0000     0.0000     0.0000 </r>
        <r>    -1.8552     0.0000     1.5753     0.0000     1.5753     0.0000     0.0000     0.0000     0.0000     0.0000 </r>
        <r>    -1.7396     0.0000     1.6011     0.0000     1.6011     0.0000     0.0000     0.0000     0.0000     0.0000 </r>
        <r>    -1.6240     0.0000     0.8649     0.0000     0.8649     0.0000     0.0000     0.0000     0.0000     0.0000 </r>
        <r>    -1.5084     0.0000     0.2480     0.0000     0.2480     0.0000     0.0000     0.0000     0.0000     0.0000 </r>
        <r>    -1.3928     0.0000     0.0376     0.0000     0.0376     0.0000     0.0000     0.0000     0.0000     0.0000 </r>
        <r>    -1.2772     0.0000     0.0030     0.0000     0.0030     0.0000     0.0000     0.0000     0.0000     0.0000 </r>
        <r>    -1.1616     0.0000     0.0001     0.0000     0.0001     0.0000     0.0000     0.0000     0.0000     0.0000 </r>
        <r>    -1.0460     0.0000     0.0000     0.0000     0.0000     0.0000     0.0000     0.0000     0.0000     0.0000 </r>
        <r>    -0.9304     0.0000     0.0000     0.0000     0.0000     0.0000     0.0000     0.0000     0.0000     0.0000 </r>
        <r>    -0.8148     0.0000     0.0000     0.0000     0.0000     0.0000     0.0000     0.0000     0.0000     0.0000 </r>
        <r>    -0.6992     0.0001     0.0000     0.0001     0.0000     0.0000     0.0000     0.0000     0.0000     0.0000 </r>
        <r>    -0.5836     0.0015     0.0000     0.0014     0.0000     0.0000     0.0000     0.0000     0.0000     0.0000 </r>
        <r>    -0.4680     0.0086     0.0000     0.0083     0.0000     0.0000     0.0000     0.0000     0.0000     0.0000 </r>
        <r>    -0.3524     0.0267     0.0000     0.0257     0.0000     0.0000     0.0000     0.0000     0.0000     0.0000 </r>
        <r>    -0.2368     0.0439     0.0000     0.0423     0.0000     0.0000     0.0000     0.0000     0.0000     0.0000 </r>
        <r>    -0.1212     0.0384     0.0000     0.0369     0.0000     0.0000     0.0000     0.0000     0.0000     0.0000 </r>
        <r>    -0.0056     0.0178     0.0000     0.0171     0.0000     0.0000     0.0000     0.0000     0.0000     0.0000 </r>
        <r>     0.1100     0.0044     0.0000     0.0042     0.0000     0.0000     0.0000     0.0000     0.0000     0.0000 </r>
        <r>     0.2256     0.0006     0.0000     0.0005     0.0000     0.0000     0.0000     0.0000     0.0000     0.0000 </r>
        <r>     0.3412     0.0000     0.0000     0.0000     0.0000     0.0000     0.0000     0.0000     0.0000     0.0000 </r>
        <r>     0.4568     0.0000     0.0000     0.0000     0.0000     0.0000     0.0000     0.0000     0.0000     0.0000 </r>
        <r>     0.5724     0.0000     0.0000     0.0000     0.0000     0.0000     0.0000     0.0000     0.0000     0.0000 </r>
        <r>     0.6880     0.0000     0.0000     0.0000     0.0000     0.0000     0.0000     0.0000     0.0000     0.0000 </r>
        <r>     0.8036     0.0000     0.0000     0.0000     0.0000     0.0000     0.0000     0.0000     0.0000     0.0000 </r>
        <r>     0.9192     0.0000     0.0000     0.0000     0.0000     0.0000     0.0000     0.0000     0.0000     0.0000 </r>
        <r>     1.0348     0.0000     0.0000     0.0000     0.0000     0.0000     0.0000     0.0000     0.0000     0.0000 </r>
        <r>     1.1504     0.0000     0.0000     0.0000     0.0000     0.0000     0.0000     0.0000     0.0000     0.0000 </r>
        <r>     1.2660     0.0000     0.0000     0.0000     0.0000     0.0000     0.0000     0.0000     0.0000     0.0000 </r>
        <r>     1.3816     0.0002     0.0000     0.0000     0.0000     0.0000     0.0000     0.0000     0.0000     0.0000 </r>
        <r>     1.4972     0.0010     0.0000     0.0000     0.0000     0.0000     0.0000     0.0000     0.0000     0.0000 </r>
        <r>     1.6128     0.0030     0.0000     0.0001     0.0000     0.0000     0.0000     0.0000     0.0000     0.0000 </r>
        <r>     1.7284     0.0046     0.0000     0.0001     0.0000     0.0000     0.0000     0.0000     0.0000     0.0000 </r>
        <r>     1.8440     0.0038     0.0000     0.0001     0.0000     0.0000     0.0000     0.0000     0.0000     0.0000 </r>
        <r>     1.9596     0.0017     0.0000     0.0001     0.0000     0.0000     0.0000     0.0000     0.0000     0.0000 </r>
        <r>     2.0752     0.0004     0.0000     0.0000     0.0000     0.0000     0.0000     0.0000     0.0000     0.0000 </r>
        <r>     2.1908     0.0000     0.0000     0.0000     0.0000     0.0000     0.0000     0.0000     0.0000     0.0000 </r>
        <r>     2.3064     0.0000     0.0000     0.0000     0.0000     0.0000     0.0000     0.0000     0.0000     0.0000 </r>
        <r>     2.4220     0.0000     0.0000     0.0000     0.0000     0.0000     0.0000     0.0000     0.0000     0.0000 </r>
        <r>     2.5377     0.0000     0.0000     0.0000     0.0000     0.0000     0.0000     0.0000     0.0000     0.0000 </r>
        <r>     2.6533     0.0000     0.0000     0.0000     0.0000     0.0000     0.0000     0.0000     0.0000     0.0000 </r>
        <r>     2.7689     0.0000     0.0000     0.0000     0.0000     0.0000     0.0000     0.0000     0.0000     0.0000 </r>
        <r>     2.8845     0.0000     0.0000     0.0000     0.0000     0.0000     0.0000     0.0000     0.0000     0.0000 </r>
        <r>     3.0001     0.0000     0.0000     0.0000     0.0000     0.0000     0.0000     0.0000     0.0000     0.0000 </r>
        <r>     3.1157     0.0000     0.0000     0.0000     0.0000     0.0000     0.0000     0.0000     0.0000     0.0000 </r>
        <r>     3.2313     0.0000     0.0000     0.0000     0.0000     0.0000     0.0000     0.0000     0.0000     0.0000 </r>
        <r>     3.3469     0.0000     0.0000     0.0000     0.0000     0.0000     0.0000     0.0000     0.0000     0.0000 </r>
        <r>     3.4625     0.0000     0.0000     0.0000     0.0000     0.0000     0.0000     0.0000     0.0000     0.0000 </r>
        <r>     3.5781     0.0000     0.0000     0.0000     0.0000     0.0000     0.0000     0.0000     0.0000     0.0000 </r>
        <r>     3.6937     0.0000     0.0000     0.0000     0.0000     0.0000     0.0000     0.0000     0.0000     0.0000 </r>
       </set>
      </set>
     </set>
    </array>
   </partial>
  </dos>
  <projected>
   <eigenvalues>
    <array>
     <dimension dim="1">band</dimension>
     <dimension dim="2">kpoint</dimension>
     <dimension dim="3">spin</dimension>
     <field>eigene</field>
     <field>occ</field>
     <set>
      <set comment="spin 1">
       <set comment="kpoint 1">
        <r>  -28.9867    1.0000 </r>
        <r>  -13.7636    1.0000 </r>
        <r>  -11.4672    1.0000 </r>
        <r>  -11.4672    1.0000 </r>
        <r>   -8.7645    1.0000 </r>
        <r>   -1.8522    0.0000 </r>
        <r>   -1.8522    0.0000 </r>
        <r>   -0.2615    0.0000 </r>
        <r>    1.6937    0.0000 </r>
       </set>
      </set>
     </set>
    </array>
   </eigenvalues>
   <array>
    <dimension dim="1">ion</dimension>
    <dimension dim="2">band</dimension>
    <dimension dim="3">kpoint</dimension>
    <dimension dim="4">spin</dimension>
    <field>  s</field>
    <field> py</field>
    <field> pz</field>
    <field> px</field>
    <field>dxy</field>
    <field>dyz</field>
    <field>dz2</field>
    <field>dxz</field>
    <field>dx2</field>
    <set>
     <set comment="spin1">
      <set comment="kpoint 1">
       <set comment="band 1">
        <r>  0.6581  0.0000  0.0984  0.0000  0.0000  0.0000  0.0000  0.0000  0.0000 </r>
        <r>  0.1616  0.0000  0.1263  0.0000  0.0000  0.0000  0.0000  0.0000  0.0000 </r>
       </set>
       <set comment="band 2">
        <r>  0.1681  0.0000  0.4487  0.0000  0.0000  0.0000  0.0000  0.0000  0.0000 </r>
        <r>  0.1871  0.0000  0.0179  0.0000  0.0000  0.0000  0.0000  0.0000  0.0000 </r>
       </set>
       <set comment="band 3">
        <r>  0.0000  0.3862  0.0000  0.1600  0.0000  0.0000  0.0000  0.0000  0.0000 </r>
        <r>  0.0000  0.1109  0.0000  0.0459  0.0000  0.0000  0.0000  0.0000  0.0000 </r>
       </set>
       <set comment="band 4">
        <r>  0.0000  0.1600  0.0000  0.3862  0.0000  0.0000  0.0000  0.0000  0.0000 </r>
        <r>  0.0000  0.0459  0.0000  0.1109  0.0000  0.0000  0.0000  0.0000  0.0000 </r>
       </set>
       <set comment="band 5">
        <r>  0.0010  0.0000  0.1354  0.0000  0.0000  0.0000  0.0000  0.0000  0.0000 </r>
        <r>  0.1716  0.0000  0.2607  0.0000  0.0000  0.0000  0.0000  0.0000  0.0000 </r>
       </set>
       <set comment="band 6">
        <r>  0.0000  0.1544  0.0000  0.0510  0.0000  0.0000  0.0000  0.0000  0.0000 </r>
        <r>  0.0000  0.2354  0.0000  0.0778  0.0000  0.0000  0.0000  0.0000  0.0000 </r>
       </set>
       <set comment="band 7">
        <r>  0.0000  0.0510  0.0000  0.1544  0.0000  0.0000  0.0000  0.0000  0.0000 </r>
        <r>  0.0000  0.0778  0.0000  0.2354  0.0000  0.0000  0.0000  0.0000  0.0000 </r>
       </set>
       <set comment="band 8">
        <r>  0.0037  0.0000  0.0037  0.0000  0.0000  0.0000  0.0000  0.0000  0.0000 </r>
        <r>  0.0082  0.0000  0.0079  0.0000  0.0000  0.0000  0.0000  0.0000  0.0000 </r>
       </set>
       <set comment="band 9">
        <r>  0.0093  0.0000  0.0002  0.0000  0.0000  0.0000  0.0000  0.0000  0.0000 </r>
        <r>  0.0008  0.0000  0.0000  0.0000  0.0000  0.0000  0.0000  0.0000  0.0000 </r>
       </set>
      </set>
     </set>
    </set>
   </array>
  </projected>
 </calculation>
 <structure name="finalpos" >
  <crystal>
   <varray name="basis" >
    <v>       8.00000000       0.00000000       0.00000000 </v>
    <v>       0.00000000       8.00000000       0.00000000 </v>
    <v>       0.00000000       0.00000000       8.00000000 </v>
   </varray>
   <i name="volume">    512.00000000 </i>
   <varray name="rec_basis" >
    <v>       0.12500000       0.00000000       0.00000000 </v>
    <v>       0.00000000       0.12500000       0.00000000 </v>
    <v>       0.00000000       0.00000000       0.12500000 </v>
   </varray>
  </crystal>
  <varray name="positions" >
   <v>       0.00000000       0.00000000       0.00000000 </v>
   <v>       0.00000000       0.00000000       0.14287500 </v>
  </varray>
  <varray name="selective"  type="logical" >
   <v type="logical" >  F  F  T </v>
   <v type="logical" >  F  F  T </v>
  </varray>
  <nose>
   <v>      -3.00000000       0.00000000       0.00010000       0.00010000 </v>
  </nose>
 </structure>
</modeling>
