   1   1   0   0
  0.5120000E+03  0.8000000E-09  0.8000000E-09  0.8000000E-09  0.5000000E-15
  1.000000000000000E-004
  CAR 
 O atom in a box                         
      3.85414192    -25.83337408  301     -8.83339228      1.00000000
    -25.833  0.0000E+00  0.0000E+00
    -25.734  0.0000E+00  0.0000E+00
    -25.635  0.0000E+00  0.0000E+00
    -25.536  0.0000E+00  0.0000E+00
    -25.438  0.0000E+00  0.0000E+00
    -25.339  0.0000E+00  0.0000E+00
    -25.240  0.0000E+00  0.0000E+00
    -25.141  0.0000E+00  0.0000E+00
    -25.042  0.0000E+00  0.0000E+00
    -24.943  0.4375E-13  0.4330E-14
    -24.844  0.9070E-11  0.9018E-12
    -24.745  0.1159E-08  0.1156E-09
    -24.646  0.9159E-07  0.9179E-08
    -24.547  0.4478E-05  0.4523E-06
    -24.448  0.1357E-03  0.1388E-04
    -24.349  0.2551E-02  0.2663E-03
    -24.250  0.2981E-01  0.3216E-02
    -24.151  0.2168E+00  0.2467E-01
    -24.052  0.9827E+00  0.1219E+00
    -23.953  0.2779E+01  0.3970E+00
    -23.854  0.4910E+01  0.8829E+00
    -23.755  0.5421E+01  0.1419E+01
    -23.656  0.3740E+01  0.1789E+01
    -23.557  0.1612E+01  0.1949E+01
    -23.458  0.4339E+00  0.1992E+01
    -23.359  0.7282E-01  0.1999E+01
    -23.260  0.7610E-02  0.2000E+01
    -23.161  0.4946E-03  0.2000E+01
    -23.063  0.1996E-04  0.2000E+01
    -22.964  0.4994E-06  0.2000E+01
    -22.865  0.7737E-08  0.2000E+01
    -22.766  0.7413E-10  0.2000E+01
    -22.667  0.4398E-12  0.2000E+01
    -22.568  0.0000E+00  0.2000E+01
    -22.469  0.0000E+00  0.2000E+01
    -22.370  0.0000E+00  0.2000E+01
    -22.271  0.0000E+00  0.2000E+01
    -22.172  0.0000E+00  0.2000E+01
    -22.073  0.0000E+00  0.2000E+01
    -21.974  0.0000E+00  0.2000E+01
    -21.875  0.0000E+00  0.2000E+01
    -21.776  0.0000E+00  0.2000E+01
    -21.677  0.0000E+00  0.2000E+01
    -21.578  0.0000E+00  0.2000E+01
    -21.479  0.0000E+00  0.2000E+01
    -21.380  0.0000E+00  0.2000E+01
    -21.281  0.0000E+00  0.2000E+01
    -21.182  0.0000E+00  0.2000E+01
    -21.083  0.0000E+00  0.2000E+01
    -20.984  0.0000E+00  0.2000E+01
    -20.885  0.0000E+00  0.2000E+01
    -20.786  0.0000E+00  0.2000E+01
    -20.688  0.0000E+00  0.2000E+01
    -20.589  0.0000E+00  0.2000E+01
    -20.490  0.0000E+00  0.2000E+01
    -20.391  0.0000E+00  0.2000E+01
    -20.292  0.0000E+00  0.2000E+01
    -20.193  0.0000E+00  0.2000E+01
    -20.094  0.0000E+00  0.2000E+01
    -19.995  0.0000E+00  0.2000E+01
    -19.896  0.0000E+00  0.2000E+01
    -19.797  0.0000E+00  0.2000E+01
    -19.698  0.0000E+00  0.2000E+01
    -19.599  0.0000E+00  0.2000E+01
    -19.500  0.0000E+00  0.2000E+01
    -19.401  0.0000E+00  0.2000E+01
    -19.302  0.0000E+00  0.2000E+01
    -19.203  0.0000E+00  0.2000E+01
    -19.104  0.0000E+00  0.2000E+01
    -19.005  0.0000E+00  0.2000E+01
    -18.906  0.0000E+00  0.2000E+01
    -18.807  0.0000E+00  0.2000E+01
    -18.708  0.0000E+00  0.2000E+01
    -18.609  0.0000E+00  0.2000E+01
    -18.510  0.0000E+00  0.2000E+01
    -18.411  0.0000E+00  0.2000E+01
    -18.313  0.0000E+00  0.2000E+01
    -18.214  0.0000E+00  0.2000E+01
    -18.115  0.0000E+00  0.2000E+01
    -18.016  0.0000E+00  0.2000E+01
    -17.917  0.0000E+00  0.2000E+01
    -17.818  0.0000E+00  0.2000E+01
    -17.719  0.0000E+00  0.2000E+01
    -17.620  0.0000E+00  0.2000E+01
    -17.521  0.0000E+00  0.2000E+01
    -17.422  0.0000E+00  0.2000E+01
    -17.323  0.0000E+00  0.2000E+01
    -17.224  0.0000E+00  0.2000E+01
    -17.125  0.0000E+00  0.2000E+01
    -17.026  0.0000E+00  0.2000E+01
    -16.927  0.0000E+00  0.2000E+01
    -16.828  0.0000E+00  0.2000E+01
    -16.729  0.0000E+00  0.2000E+01
    -16.630  0.0000E+00  0.2000E+01
    -16.531  0.0000E+00  0.2000E+01
    -16.432  0.0000E+00  0.2000E+01
    -16.333  0.0000E+00  0.2000E+01
    -16.234  0.0000E+00  0.2000E+01
    -16.135  0.0000E+00  0.2000E+01
    -16.036  0.0000E+00  0.2000E+01
    -15.938  0.0000E+00  0.2000E+01
    -15.839  0.0000E+00  0.2000E+01
    -15.740  0.0000E+00  0.2000E+01
    -15.641  0.0000E+00  0.2000E+01
    -15.542  0.0000E+00  0.2000E+01
    -15.443  0.0000E+00  0.2000E+01
    -15.344  0.0000E+00  0.2000E+01
    -15.245  0.0000E+00  0.2000E+01
    -15.146  0.0000E+00  0.2000E+01
    -15.047  0.0000E+00  0.2000E+01
    -14.948  0.0000E+00  0.2000E+01
    -14.849  0.0000E+00  0.2000E+01
    -14.750  0.0000E+00  0.2000E+01
    -14.651  0.0000E+00  0.2000E+01
    -14.552  0.0000E+00  0.2000E+01
    -14.453  0.0000E+00  0.2000E+01
    -14.354  0.0000E+00  0.2000E+01
    -14.255  0.0000E+00  0.2000E+01
    -14.156  0.0000E+00  0.2000E+01
    -14.057  0.0000E+00  0.2000E+01
    -13.958  0.0000E+00  0.2000E+01
    -13.859  0.0000E+00  0.2000E+01
    -13.760  0.0000E+00  0.2000E+01
    -13.661  0.0000E+00  0.2000E+01
    -13.563  0.0000E+00  0.2000E+01
    -13.464  0.0000E+00  0.2000E+01
    -13.365  0.0000E+00  0.2000E+01
    -13.266  0.0000E+00  0.2000E+01
    -13.167  0.0000E+00  0.2000E+01
    -13.068  0.0000E+00  0.2000E+01
    -12.969  0.0000E+00  0.2000E+01
    -12.870  0.0000E+00  0.2000E+01
    -12.771  0.0000E+00  0.2000E+01
    -12.672  0.0000E+00  0.2000E+01
    -12.573  0.0000E+00  0.2000E+01
    -12.474  0.0000E+00  0.2000E+01
    -12.375  0.0000E+00  0.2000E+01
    -12.276  0.0000E+00  0.2000E+01
    -12.177  0.0000E+00  0.2000E+01
    -12.078  0.0000E+00  0.2000E+01
    -11.979  0.0000E+00  0.2000E+01
    -11.880  0.0000E+00  0.2000E+01
    -11.781  0.0000E+00  0.2000E+01
    -11.682  0.0000E+00  0.2000E+01
    -11.583  0.0000E+00  0.2000E+01
    -11.484  0.0000E+00  0.2000E+01
    -11.385  0.0000E+00  0.2000E+01
    -11.286  0.0000E+00  0.2000E+01
    -11.188  0.0000E+00  0.2000E+01
    -11.089  0.0000E+00  0.2000E+01
    -10.990  0.0000E+00  0.2000E+01
    -10.891  0.0000E+00  0.2000E+01
    -10.792  0.0000E+00  0.2000E+01
    -10.693  0.0000E+00  0.2000E+01
    -10.594  0.0000E+00  0.2000E+01
    -10.495  0.0000E+00  0.2000E+01
    -10.396  0.0000E+00  0.2000E+01
    -10.297  0.0000E+00  0.2000E+01
    -10.198  0.0000E+00  0.2000E+01
    -10.099  0.0000E+00  0.2000E+01
    -10.000  0.1616E-12  0.2000E+01
     -9.901  0.3282E-10  0.2000E+01
     -9.802  0.4121E-08  0.2000E+01
     -9.703  0.3199E-06  0.2000E+01
     -9.604  0.1537E-04  0.2000E+01
     -9.505  0.4574E-03  0.2000E+01
     -9.406  0.8451E-02  0.2001E+01
     -9.307  0.9703E-01  0.2010E+01
     -9.208  0.6934E+00  0.2079E+01
     -9.109  0.3089E+01  0.2385E+01
     -9.010  0.8587E+01  0.3235E+01
     -8.911  0.1491E+02  0.4710E+01
     -8.813  0.1618E+02  0.6311E+01
     -8.714  0.1097E+02  0.7396E+01
     -8.615  0.4647E+01  0.7856E+01
     -8.516  0.1229E+01  0.7978E+01
     -8.417  0.2027E+00  0.7998E+01
     -8.318  0.2082E-01  0.8000E+01
     -8.219  0.1329E-02  0.8000E+01
     -8.120  0.5271E-04  0.8000E+01
     -8.021  0.1296E-05  0.8000E+01
     -7.922  0.1972E-07  0.8000E+01
     -7.823  0.1856E-09  0.8000E+01
     -7.724  0.1084E-11  0.8000E+01
     -7.625  0.0000E+00  0.8000E+01
     -7.526  0.0000E+00  0.8000E+01
     -7.427  0.0000E+00  0.8000E+01
     -7.328  0.0000E+00  0.8000E+01
     -7.229  0.0000E+00  0.8000E+01
     -7.130  0.0000E+00  0.8000E+01
     -7.031  0.0000E+00  0.8000E+01
     -6.932  0.0000E+00  0.8000E+01
     -6.833  0.0000E+00  0.8000E+01
     -6.734  0.0000E+00  0.8000E+01
     -6.635  0.0000E+00  0.8000E+01
     -6.536  0.0000E+00  0.8000E+01
     -6.438  0.0000E+00  0.8000E+01
     -6.339  0.0000E+00  0.8000E+01
     -6.240  0.0000E+00  0.8000E+01
     -6.141  0.0000E+00  0.8000E+01
     -6.042  0.0000E+00  0.8000E+01
     -5.943  0.0000E+00  0.8000E+01
     -5.844  0.0000E+00  0.8000E+01
     -5.745  0.0000E+00  0.8000E+01
     -5.646  0.0000E+00  0.8000E+01
     -5.547  0.0000E+00  0.8000E+01
     -5.448  0.0000E+00  0.8000E+01
     -5.349  0.0000E+00  0.8000E+01
     -5.250  0.0000E+00  0.8000E+01
     -5.151  0.0000E+00  0.8000E+01
     -5.052  0.0000E+00  0.8000E+01
     -4.953  0.0000E+00  0.8000E+01
     -4.854  0.0000E+00  0.8000E+01
     -4.755  0.0000E+00  0.8000E+01
     -4.656  0.0000E+00  0.8000E+01
     -4.557  0.0000E+00  0.8000E+01
     -4.458  0.0000E+00  0.8000E+01
     -4.359  0.0000E+00  0.8000E+01
     -4.260  0.0000E+00  0.8000E+01
     -4.161  0.0000E+00  0.8000E+01
     -4.063  0.0000E+00  0.8000E+01
     -3.964  0.0000E+00  0.8000E+01
     -3.865  0.0000E+00  0.8000E+01
     -3.766  0.0000E+00  0.8000E+01
     -3.667  0.0000E+00  0.8000E+01
     -3.568  0.0000E+00  0.8000E+01
     -3.469  0.0000E+00  0.8000E+01
     -3.370  0.0000E+00  0.8000E+01
     -3.271  0.0000E+00  0.8000E+01
     -3.172  0.0000E+00  0.8000E+01
     -3.073  0.0000E+00  0.8000E+01
     -2.974  0.0000E+00  0.8000E+01
     -2.875  0.0000E+00  0.8000E+01
     -2.776  0.0000E+00  0.8000E+01
     -2.677  0.0000E+00  0.8000E+01
     -2.578  0.0000E+00  0.8000E+01
     -2.479  0.0000E+00  0.8000E+01
     -2.380  0.0000E+00  0.8000E+01
     -2.281  0.0000E+00  0.8000E+01
     -2.182  0.0000E+00  0.8000E+01
     -2.083  0.0000E+00  0.8000E+01
     -1.984  0.0000E+00  0.8000E+01
     -1.885  0.0000E+00  0.8000E+01
     -1.786  0.0000E+00  0.8000E+01
     -1.688  0.0000E+00  0.8000E+01
     -1.589  0.4263E-13  0.8000E+01
     -1.490  0.8848E-11  0.8000E+01
     -1.391  0.1134E-08  0.8000E+01
     -1.292  0.8978E-07  0.8000E+01
     -1.193  0.4400E-05  0.8000E+01
     -1.094  0.1336E-03  0.8000E+01
     -0.995  0.2518E-02  0.8000E+01
     -0.896  0.2949E-01  0.8003E+01
     -0.797  0.2150E+00  0.8024E+01
     -0.698  0.9766E+00  0.8121E+01
     -0.599  0.2769E+01  0.8395E+01
     -0.500  0.4902E+01  0.8880E+01
     -0.401  0.5425E+01  0.9417E+01
     -0.302  0.3751E+01  0.9788E+01
     -0.203  0.1621E+01  0.9949E+01
     -0.104  0.4372E+00  0.9992E+01
     -0.005  0.7353E-01  0.9999E+01
      0.094  0.7702E-02  0.1000E+02
      0.193  0.5017E-03  0.1000E+02
      0.292  0.2029E-04  0.1000E+02
      0.391  0.5090E-06  0.1000E+02
      0.490  0.7904E-08  0.1000E+02
      0.589  0.7590E-10  0.1000E+02
      0.687  0.4555E-12  0.1000E+02
      0.786  0.8785E-12  0.1000E+02
      0.885  0.1483E-09  0.1000E+02
      0.984  0.1547E-07  0.1000E+02
      1.083  0.9988E-06  0.1000E+02
      1.182  0.3992E-04  0.1000E+02
      1.281  0.9892E-03  0.1000E+02
      1.380  0.1522E-01  0.1000E+02
      1.479  0.1456E+00  0.1002E+02
      1.578  0.8678E+00  0.1010E+02
      1.677  0.3225E+01  0.1042E+02
      1.776  0.7481E+01  0.1116E+02
      1.875  0.1084E+02  0.1223E+02
      1.974  0.9821E+01  0.1321E+02
      2.073  0.5559E+01  0.1376E+02
      2.172  0.1965E+01  0.1395E+02
      2.271  0.4336E+00  0.1399E+02
      2.370  0.5962E-01  0.1400E+02
      2.469  0.5102E-02  0.1400E+02
      2.568  0.2714E-03  0.1400E+02
      2.667  0.8957E-05  0.1400E+02
      2.766  0.1832E-06  0.1400E+02
      2.865  0.2318E-08  0.1400E+02
      2.964  0.1814E-10  0.1400E+02
      3.062  0.8975E-13  0.1400E+02
      3.161  0.0000E+00  0.1400E+02
      3.260  0.0000E+00  0.1400E+02
      3.359  0.0000E+00  0.1400E+02
      3.458  0.0000E+00  0.1400E+02
      3.557  0.0000E+00  0.1400E+02
      3.656  0.0000E+00  0.1400E+02
      3.755  0.0000E+00  0.1400E+02
      3.854  0.0000E+00  0.1400E+02
