    1    1    1    1
  0.5120000E+03  0.8000000E-09  0.8000000E-09  0.8000000E-09  0.5000000E-15
  1.000000000000000E-004
  CAR 
 O atom in a box                         
      6      1      7
 
  0.0000000E+00  0.0000000E+00  0.0000000E+00  0.1000000E+01
    1      -23.833374
    2       -8.894306
    3       -8.894306
    4       -8.894306
    5       -0.478716
    6        1.854142
    7        1.854142
