       N       E                     dE             d eps       ncg     rms          rms(c)
DAV:   1    -0.314604403589E+00   -0.31460E+00   -0.52408E-08     7   0.181E-03    0.318E-04
DAV:   2    -0.314604400619E+00    0.29705E-08   -0.75454E-09     7   0.718E-04
   1 F= -.31460440E+00 E0= -.16034208E+00  d E =-.308525E+00
