   2   2   0   0
  0.2560000E+03  0.8000000E-09  0.8000000E-09  0.8000000E-09  0.5000000E-15
  1.000000000000000E-004
  CAR 
 CO molecule in a box                    
      3.68680184    -30.92999868  301     -7.85032871      1.00000000
    -30.930  0.0000E+00  0.0000E+00
    -30.815  0.0000E+00  0.0000E+00
    -30.699  0.0000E+00  0.0000E+00
    -30.584  0.0000E+00  0.0000E+00
    -30.468  0.0000E+00  0.0000E+00
    -30.353  0.0000E+00  0.0000E+00
    -30.238  0.0000E+00  0.0000E+00
    -30.122  0.0000E+00  0.0000E+00
    -30.007  0.4580E-13  0.5285E-14
    -29.891  0.1824E-10  0.2110E-11
    -29.776  0.3782E-08  0.4385E-09
    -29.661  0.4086E-06  0.4759E-07
    -29.545  0.2307E-04  0.2710E-05
    -29.430  0.6830E-03  0.8152E-04
    -29.315  0.1064E-01  0.1309E-02
    -29.199  0.8747E-01  0.1140E-01
    -29.084  0.3811E+00  0.5538E-01
    -28.968  0.8826E+00  0.1572E+00
    -28.853  0.1088E+01  0.2828E+00
    -28.738  0.7148E+00  0.3653E+00
    -28.622  0.2499E+00  0.3941E+00
    -28.507  0.4638E-01  0.3994E+00
    -28.391  0.4556E-02  0.4000E+00
    -28.276  0.2361E-03  0.4000E+00
    -28.161  0.6427E-05  0.4000E+00
    -28.045  0.9162E-07  0.4000E+00
    -27.930  0.6819E-09  0.4000E+00
    -27.814  0.2643E-11  0.4000E+00
    -27.699  0.5388E-14  0.4000E+00
    -27.584  0.0000E+00  0.4000E+00
    -27.468  0.0000E+00  0.4000E+00
    -27.353  0.0000E+00  0.4000E+00
    -27.238  0.0000E+00  0.4000E+00
    -27.122  0.0000E+00  0.4000E+00
    -27.007  0.0000E+00  0.4000E+00
    -26.891  0.0000E+00  0.4000E+00
    -26.776  0.0000E+00  0.4000E+00
    -26.661  0.0000E+00  0.4000E+00
    -26.545  0.0000E+00  0.4000E+00
    -26.430  0.0000E+00  0.4000E+00
    -26.314  0.0000E+00  0.4000E+00
    -26.199  0.0000E+00  0.4000E+00
    -26.084  0.0000E+00  0.4000E+00
    -25.968  0.0000E+00  0.4000E+00
    -25.853  0.0000E+00  0.4000E+00
    -25.737  0.0000E+00  0.4000E+00
    -25.622  0.0000E+00  0.4000E+00
    -25.507  0.0000E+00  0.4000E+00
    -25.391  0.0000E+00  0.4000E+00
    -25.276  0.0000E+00  0.4000E+00
    -25.161  0.0000E+00  0.4000E+00
    -25.045  0.0000E+00  0.4000E+00
    -24.930  0.0000E+00  0.4000E+00
    -24.814  0.0000E+00  0.4000E+00
    -24.699  0.0000E+00  0.4000E+00
    -24.584  0.0000E+00  0.4000E+00
    -24.468  0.0000E+00  0.4000E+00
    -24.353  0.0000E+00  0.4000E+00
    -24.237  0.0000E+00  0.4000E+00
    -24.122  0.0000E+00  0.4000E+00
    -24.007  0.0000E+00  0.4000E+00
    -23.891  0.0000E+00  0.4000E+00
    -23.776  0.0000E+00  0.4000E+00
    -23.660  0.0000E+00  0.4000E+00
    -23.545  0.0000E+00  0.4000E+00
    -23.430  0.0000E+00  0.4000E+00
    -23.314  0.0000E+00  0.4000E+00
    -23.199  0.0000E+00  0.4000E+00
    -23.084  0.0000E+00  0.4000E+00
    -22.968  0.0000E+00  0.4000E+00
    -22.853  0.0000E+00  0.4000E+00
    -22.737  0.0000E+00  0.4000E+00
    -22.622  0.0000E+00  0.4000E+00
    -22.507  0.0000E+00  0.4000E+00
    -22.391  0.0000E+00  0.4000E+00
    -22.276  0.0000E+00  0.4000E+00
    -22.160  0.0000E+00  0.4000E+00
    -22.045  0.0000E+00  0.4000E+00
    -21.930  0.0000E+00  0.4000E+00
    -21.814  0.0000E+00  0.4000E+00
    -21.699  0.0000E+00  0.4000E+00
    -21.583  0.0000E+00  0.4000E+00
    -21.468  0.0000E+00  0.4000E+00
    -21.353  0.0000E+00  0.4000E+00
    -21.237  0.0000E+00  0.4000E+00
    -21.122  0.0000E+00  0.4000E+00
    -21.007  0.0000E+00  0.4000E+00
    -20.891  0.0000E+00  0.4000E+00
    -20.776  0.0000E+00  0.4000E+00
    -20.660  0.0000E+00  0.4000E+00
    -20.545  0.0000E+00  0.4000E+00
    -20.430  0.0000E+00  0.4000E+00
    -20.314  0.0000E+00  0.4000E+00
    -20.199  0.0000E+00  0.4000E+00
    -20.083  0.0000E+00  0.4000E+00
    -19.968  0.0000E+00  0.4000E+00
    -19.853  0.0000E+00  0.4000E+00
    -19.737  0.0000E+00  0.4000E+00
    -19.622  0.0000E+00  0.4000E+00
    -19.506  0.0000E+00  0.4000E+00
    -19.391  0.0000E+00  0.4000E+00
    -19.276  0.0000E+00  0.4000E+00
    -19.160  0.0000E+00  0.4000E+00
    -19.045  0.0000E+00  0.4000E+00
    -18.930  0.0000E+00  0.4000E+00
    -18.814  0.0000E+00  0.4000E+00
    -18.699  0.0000E+00  0.4000E+00
    -18.583  0.0000E+00  0.4000E+00
    -18.468  0.0000E+00  0.4000E+00
    -18.353  0.0000E+00  0.4000E+00
    -18.237  0.0000E+00  0.4000E+00
    -18.122  0.0000E+00  0.4000E+00
    -18.006  0.0000E+00  0.4000E+00
    -17.891  0.0000E+00  0.4000E+00
    -17.776  0.0000E+00  0.4000E+00
    -17.660  0.0000E+00  0.4000E+00
    -17.545  0.0000E+00  0.4000E+00
    -17.429  0.0000E+00  0.4000E+00
    -17.314  0.0000E+00  0.4000E+00
    -17.199  0.0000E+00  0.4000E+00
    -17.083  0.0000E+00  0.4000E+00
    -16.968  0.0000E+00  0.4000E+00
    -16.852  0.0000E+00  0.4000E+00
    -16.737  0.0000E+00  0.4000E+00
    -16.622  0.0000E+00  0.4000E+00
    -16.506  0.0000E+00  0.4000E+00
    -16.391  0.0000E+00  0.4000E+00
    -16.276  0.0000E+00  0.4000E+00
    -16.160  0.0000E+00  0.4000E+00
    -16.045  0.0000E+00  0.4000E+00
    -15.929  0.0000E+00  0.4000E+00
    -15.814  0.0000E+00  0.4000E+00
    -15.699  0.0000E+00  0.4000E+00
    -15.583  0.0000E+00  0.4000E+00
    -15.468  0.0000E+00  0.4000E+00
    -15.352  0.0000E+00  0.4000E+00
    -15.237  0.0000E+00  0.4000E+00
    -15.122  0.0000E+00  0.4000E+00
    -15.006  0.0000E+00  0.4000E+00
    -14.891  0.2309E-14  0.4000E+00
    -14.775  0.1276E-11  0.4000E+00
    -14.660  0.3567E-09  0.4000E+00
    -14.545  0.5193E-07  0.4000E+00
    -14.429  0.3945E-05  0.4000E+00
    -14.314  0.1569E-03  0.4000E+00
    -14.199  0.3277E-02  0.4004E+00
    -14.083  0.3608E-01  0.4046E+00
    -13.968  0.2102E+00  0.4288E+00
    -13.852  0.6498E+00  0.5038E+00
    -13.737  0.1069E+01  0.6272E+00
    -13.622  0.9369E+00  0.7353E+00
    -13.506  0.4372E+00  0.7857E+00
    -13.391  0.1085E+00  0.7982E+00
    -13.275  0.1427E-01  0.7999E+00
    -13.160  0.9912E-03  0.8000E+00
    -13.045  0.3624E-04  0.8000E+00
    -12.929  0.6950E-06  0.8000E+00
    -12.814  0.6968E-08  0.8000E+00
    -12.698  0.3642E-10  0.8000E+00
    -12.583  0.1008E-12  0.8000E+00
    -12.468  0.8425E-12  0.8000E+00
    -12.352  0.2657E-09  0.8000E+00
    -12.237  0.4361E-07  0.8000E+00
    -12.122  0.3734E-05  0.8000E+00
    -12.006  0.1672E-03  0.8000E+00
    -11.891  0.3931E-02  0.8005E+00
    -11.775  0.4869E-01  0.8061E+00
    -11.660  0.3188E+00  0.8429E+00
    -11.545  0.1107E+01  0.9706E+00
    -11.429  0.2045E+01  0.1207E+01
    -11.314  0.2013E+01  0.1439E+01
    -11.198  0.1055E+01  0.1561E+01
    -11.083  0.2941E+00  0.1595E+01
    -10.968  0.4348E-01  0.1600E+01
    -10.852  0.3398E-02  0.1600E+01
    -10.737  0.1399E-03  0.1600E+01
    -10.621  0.3021E-05  0.1600E+01
    -10.506  0.3414E-07  0.1600E+01
    -10.391  0.2012E-09  0.1600E+01
    -10.275  0.6158E-12  0.1600E+01
    -10.160  0.1539E-14  0.1600E+01
    -10.045  0.0000E+00  0.1600E+01
     -9.929  0.3849E-15  0.1600E+01
     -9.814  0.2888E-12  0.1600E+01
     -9.698  0.9485E-10  0.1600E+01
     -9.583  0.1621E-07  0.1600E+01
     -9.468  0.1445E-05  0.1600E+01
     -9.352  0.6734E-04  0.1600E+01
     -9.237  0.1647E-02  0.1600E+01
     -9.121  0.2122E-01  0.1603E+01
     -9.006  0.1445E+00  0.1619E+01
     -8.891  0.5220E+00  0.1680E+01
     -8.775  0.1003E+01  0.1795E+01
     -8.660  0.1026E+01  0.1914E+01
     -8.544  0.5591E+00  0.1978E+01
     -8.429  0.1621E+00  0.1997E+01
     -8.314  0.2492E-01  0.2000E+01
     -8.198  0.2026E-02  0.2000E+01
     -8.083  0.8680E-04  0.2000E+01
     -7.968  0.1951E-05  0.2000E+01
     -7.852  0.2295E-07  0.2000E+01
     -7.737  0.1408E-09  0.2000E+01
     -7.621  0.4495E-12  0.2000E+01
     -7.506  0.7697E-15  0.2000E+01
     -7.391  0.0000E+00  0.2000E+01
     -7.275  0.0000E+00  0.2000E+01
     -7.160  0.0000E+00  0.2000E+01
     -7.044  0.0000E+00  0.2000E+01
     -6.929  0.0000E+00  0.2000E+01
     -6.814  0.0000E+00  0.2000E+01
     -6.698  0.0000E+00  0.2000E+01
     -6.583  0.0000E+00  0.2000E+01
     -6.467  0.0000E+00  0.2000E+01
     -6.352  0.0000E+00  0.2000E+01
     -6.237  0.0000E+00  0.2000E+01
     -6.121  0.0000E+00  0.2000E+01
     -6.006  0.0000E+00  0.2000E+01
     -5.891  0.0000E+00  0.2000E+01
     -5.775  0.0000E+00  0.2000E+01
     -5.660  0.0000E+00  0.2000E+01
     -5.544  0.0000E+00  0.2000E+01
     -5.429  0.0000E+00  0.2000E+01
     -5.314  0.0000E+00  0.2000E+01
     -5.198  0.0000E+00  0.2000E+01
     -5.083  0.0000E+00  0.2000E+01
     -4.967  0.0000E+00  0.2000E+01
     -4.852  0.0000E+00  0.2000E+01
     -4.737  0.0000E+00  0.2000E+01
     -4.621  0.0000E+00  0.2000E+01
     -4.506  0.0000E+00  0.2000E+01
     -4.390  0.0000E+00  0.2000E+01
     -4.275  0.0000E+00  0.2000E+01
     -4.160  0.0000E+00  0.2000E+01
     -4.044  0.0000E+00  0.2000E+01
     -3.929  0.0000E+00  0.2000E+01
     -3.814  0.0000E+00  0.2000E+01
     -3.698  0.0000E+00  0.2000E+01
     -3.583  0.0000E+00  0.2000E+01
     -3.467  0.0000E+00  0.2000E+01
     -3.352  0.0000E+00  0.2000E+01
     -3.237  0.0000E+00  0.2000E+01
     -3.121  0.0000E+00  0.2000E+01
     -3.006  0.6928E-14  0.2000E+01
     -2.890  0.3533E-11  0.2000E+01
     -2.775  0.9531E-09  0.2000E+01
     -2.660  0.1339E-06  0.2000E+01
     -2.544  0.9817E-05  0.2000E+01
     -2.429  0.3768E-03  0.2000E+01
     -2.313  0.7599E-02  0.2001E+01
     -2.198  0.8079E-01  0.2010E+01
     -2.083  0.4545E+00  0.2063E+01
     -1.967  0.1358E+01  0.2219E+01
     -1.852  0.2158E+01  0.2468E+01
     -1.736  0.1827E+01  0.2679E+01
     -1.621  0.8236E+00  0.2774E+01
     -1.506  0.1974E+00  0.2797E+01
     -1.390  0.2507E-01  0.2800E+01
     -1.275  0.1682E-02  0.2800E+01
     -1.160  0.5936E-04  0.2800E+01
     -1.044  0.1536E-05  0.2800E+01
     -0.929  0.2445E-04  0.2800E+01
     -0.813  0.7163E-03  0.2800E+01
     -0.698  0.1105E-01  0.2801E+01
     -0.583  0.8993E-01  0.2812E+01
     -0.467  0.3880E+00  0.2857E+01
     -0.352  0.8897E+00  0.2959E+01
     -0.236  0.1086E+01  0.3085E+01
     -0.121  0.7066E+00  0.3166E+01
     -0.006  0.2446E+00  0.3194E+01
      0.110  0.4495E-01  0.3199E+01
      0.225  0.4373E-02  0.3200E+01
      0.341  0.2243E-03  0.3200E+01
      0.456  0.6046E-05  0.3200E+01
      0.571  0.8532E-07  0.3200E+01
      0.687  0.6312E-09  0.3200E+01
      0.802  0.6843E-09  0.3200E+01
      0.917  0.9162E-07  0.3200E+01
      1.033  0.6427E-05  0.3200E+01
      1.148  0.2361E-03  0.3200E+01
      1.264  0.4556E-02  0.3201E+01
      1.379  0.4638E-01  0.3206E+01
      1.494  0.2499E+00  0.3235E+01
      1.610  0.7148E+00  0.3317E+01
      1.725  0.1088E+01  0.3443E+01
      1.841  0.8826E+00  0.3545E+01
      1.956  0.3811E+00  0.3589E+01
      2.071  0.8747E-01  0.3599E+01
      2.187  0.1064E-01  0.3600E+01
      2.302  0.6830E-03  0.3600E+01
      2.418  0.2307E-04  0.3600E+01
      2.533  0.4086E-06  0.3600E+01
      2.648  0.3782E-08  0.3600E+01
      2.764  0.1824E-10  0.3600E+01
      2.879  0.4580E-13  0.3600E+01
      2.994  0.0000E+00  0.3600E+01
      3.110  0.0000E+00  0.3600E+01
      3.225  0.0000E+00  0.3600E+01
      3.341  0.0000E+00  0.3600E+01
      3.456  0.0000E+00  0.3600E+01
      3.571  0.0000E+00  0.3600E+01
      3.687  0.0000E+00  0.3600E+01
