    2    2    5    1
  0.2560000E+03  0.8000000E-09  0.8000000E-09  0.8000000E-09  0.5000000E-15
  1.000000000000000E-004
  CAR 
 CO molecule in a box                    
     10      1      9
 
  0.0000000E+00  0.0000000E+00  0.0000000E+00  0.1000000E+01
    1      -28.929999
    2      -13.761174
    3      -11.432151
    4      -11.432151
    5       -8.771056
    6       -1.882391
    7       -1.882391
    8       -0.315239
    9        1.686802
