       N       E                     dE             d eps       ncg     rms          rms(c)
DAV:   1    -0.148416155685E+02   -0.14842E+02   -0.29568E+00    20   0.180E+01    0.194E+00
DAV:   2    -0.147865202268E+02    0.55095E-01   -0.13469E-01    18   0.362E+00    0.971E-01
DAV:   3    -0.147658297804E+02    0.20690E-01   -0.77355E-02    27   0.263E+00    0.231E-01
DAV:   4    -0.147655953473E+02    0.23443E-03   -0.39889E-03    18   0.579E-01    0.122E-01
DAV:   5    -0.147656488614E+02   -0.53514E-04   -0.28995E-04    19   0.163E-01
   1 F= -.14765649E+02 E0= -.14765649E+02  d E =-.147656E+02
       N       E                     dE             d eps       ncg     rms          rms(c)
DAV:   1    -0.128113027893E+02    0.19543E+01   -0.19896E+02    20   0.144E+02    0.499E+00
DAV:   2    -0.126649522485E+02    0.14635E+00   -0.43628E+00    20   0.175E+01    0.251E+00
DAV:   3    -0.126280624633E+02    0.36890E-01   -0.80710E-01    28   0.626E+00    0.157E+00
DAV:   4    -0.125983796317E+02    0.29683E-01   -0.28969E-01    26   0.283E+00    0.608E-01
DAV:   5    -0.126023731807E+02   -0.39935E-02   -0.15118E-02    20   0.987E-01    0.208E-01
DAV:   6    -0.126037267786E+02   -0.13536E-02   -0.19338E-03    18   0.323E-01    0.328E-02
DAV:   7    -0.126045464797E+02   -0.81970E-03   -0.20778E-04    20   0.986E-02    0.216E-02
DAV:   8    -0.126057953050E+02   -0.12488E-02   -0.31588E-04    18   0.112E-01    0.187E-02
DAV:   9    -0.126061222040E+02   -0.32690E-03   -0.83555E-05    18   0.564E-02    0.757E-03
DAV:  10    -0.126062663040E+02   -0.14410E-03   -0.16561E-05    18   0.312E-02    0.385E-03
DAV:  11    -0.126063019780E+02   -0.35674E-04   -0.44556E-06    19   0.150E-02
   2 F= -.12606302E+02 E0= -.12606302E+02  d E =0.215935E+01
       N       E                     dE             d eps       ncg     rms          rms(c)
DAV:   1    -0.146933760207E+02   -0.20871E+01   -0.12368E+02    19   0.114E+02    0.448E+00
DAV:   2    -0.148450856712E+02   -0.15171E+00   -0.37411E+00    18   0.177E+01    0.227E+00
DAV:   3    -0.147649189493E+02    0.80167E-01   -0.29568E-01    28   0.423E+00    0.107E+00
DAV:   4    -0.147411267830E+02    0.23792E-01   -0.11600E-01    27   0.283E+00    0.283E-01
DAV:   5    -0.147416186636E+02   -0.49188E-03   -0.10277E-03    18   0.316E-01    0.165E-01
DAV:   6    -0.147430992823E+02   -0.14806E-02   -0.72745E-04    20   0.196E-01    0.299E-02
DAV:   7    -0.147440293686E+02   -0.93009E-03   -0.71437E-05    20   0.552E-02    0.154E-02
DAV:   8    -0.147455803355E+02   -0.15510E-02   -0.29552E-04    20   0.853E-02    0.876E-03
DAV:   9    -0.147460292866E+02   -0.44895E-03   -0.35572E-05    18   0.344E-02    0.336E-03
DAV:  10    -0.147461825672E+02   -0.15328E-03   -0.12319E-05    18   0.195E-02    0.224E-03
DAV:  11    -0.147462324218E+02   -0.49855E-04   -0.41824E-06    19   0.118E-02
   3 F= -.14746232E+02 E0= -.14746232E+02  d E =0.194164E-01
       N       E                     dE             d eps       ncg     rms          rms(c)
DAV:   1    -0.148020740606E+02   -0.55891E-01   -0.21828E+00    18   0.156E+01    0.679E-01
DAV:   2    -0.148011686226E+02    0.90544E-03   -0.46363E-02    20   0.205E+00    0.297E-01
DAV:   3    -0.147994312645E+02    0.17374E-02   -0.54364E-03    20   0.674E-01    0.105E-01
DAV:   4    -0.147994031849E+02    0.28080E-04   -0.40278E-04    20   0.197E-01
   4 F= -.14799403E+02 E0= -.14799403E+02  d E =-.337543E-01
