 vasp.5.3.5 31Mar14 (build Dec 17 2014 13:12:56) complex                        
  
 executed on         LinuxIFC_ath date 2015.06.29  15:25:58
 serial version


--------------------------------------------------------------------------------------------------------


 INCAR:
 POTCAR:    PAW_PBE O 08Apr2002                   
 POTCAR:    PAW_PBE C 08Apr2002                   
 POTCAR:    PAW_PBE O 08Apr2002                   
   VRHFIN =O: s2p4                                                              
   LEXCH  = PE                                                                  
   EATOM  =   432.3788 eV,   31.7789 Ry                                         
                                                                                
   TITEL  = PAW_PBE O 08Apr2002                                                 
   LULTRA =        F    use ultrasoft PP ?                                      
   IUNSCR =        1    unscreen: 0-lin 1-nonlin 2-no                           
   RPACOR =    1.200    partial core radius                                     
   POMASS =   16.000; ZVAL   =    6.000    mass and valenz                      
   RCORE  =    1.520    outmost cutoff radius                                   
   RWIGS  =    1.550; RWIGS  =    0.820    wigner-seitz radius (au A)           
   ENMAX  =  400.000; ENMIN  =  300.000 eV                                      
   ICORE  =        2    local potential                                         
   LCOR   =        T    correct aug charges                                     
   LPAW   =        T    paw PP                                                  
   EAUG   =  605.392                                                            
   DEXC   =    0.000                                                            
   RMAX   =    1.553    core radius for proj-oper                               
   RAUG   =    1.300    factor for augmentation sphere                          
   RDEP   =    1.550    radius for radial grids                                 
   RDEPT  =    1.329    core radius for aug-charge                              
                                                                                
   Atomic configuration                                                         
    4 entries                                                                   
     n  l   j            E        occ.                                          
     1  0  0.50      -514.6923   2.0000                                         
     2  0  0.50       -23.9615   2.0000                                         
     2  1  0.50        -9.0305   4.0000                                         
     3  2  1.50        -9.5241   0.0000                                         
   Description                                                                  
     l       E           TYP  RCUT    TYP  RCUT                                 
     0    -23.9615318     23  1.200                                             
     0     -9.5240782     23  1.200                                             
     1     -9.0304911     23  1.520                                             
     1      8.1634956     23  1.520                                             
     2     -9.5240782      7  1.500                                             
  local pseudopotential read in
  partial core-charges read in
  partial kinetic energy density read in
  kinetic energy density of atom read in
  atomic valenz-charges read in
  non local Contribution for L=           0  read in
    real space projection operators read in
  non local Contribution for L=           0  read in
    real space projection operators read in
  non local Contribution for L=           1  read in
    real space projection operators read in
  non local Contribution for L=           1  read in
    real space projection operators read in
    PAW grid and wavefunctions read in
 
   number of l-projection  operators is LMAX  =           4
   number of lm-projection operators is LMMAX =           8
 
 POTCAR:    PAW_PBE C 08Apr2002                   
   VRHFIN =C: s2p2                                                              
   LEXCH  = PE                                                                  
   EATOM  =   147.1560 eV,   10.8157 Ry                                         
                                                                                
   TITEL  = PAW_PBE C 08Apr2002                                                 
   LULTRA =        F    use ultrasoft PP ?                                      
   IUNSCR =        1    unscreen: 0-lin 1-nonlin 2-no                           
   RPACOR =    1.200    partial core radius                                     
   POMASS =   12.011; ZVAL   =    4.000    mass and valenz                      
   RCORE  =    1.500    outmost cutoff radius                                   
   RWIGS  =    1.630; RWIGS  =    0.863    wigner-seitz radius (au A)           
   ENMAX  =  400.000; ENMIN  =  300.000 eV                                      
   ICORE  =        2    local potential                                         
   LCOR   =        T    correct aug charges                                     
   LPAW   =        T    paw PP                                                  
   EAUG   =  644.873                                                            
   DEXC   =    0.000                                                            
   RMAX   =    1.529    core radius for proj-oper                               
   RAUG   =    1.300    factor for augmentation sphere                          
   RDEP   =    1.501    radius for radial grids                                 
   RDEPT  =    1.300    core radius for aug-charge                              
                                                                                
   Atomic configuration                                                         
    4 entries                                                                   
     n  l   j            E        occ.                                          
     1  0  0.50      -273.3789   2.0000                                         
     2  0  0.50       -13.7508   2.0000                                         
     2  1  0.50        -5.2854   2.0000                                         
     3  2  1.50        -5.4423   0.0000                                         
   Description                                                                  
     l       E           TYP  RCUT    TYP  RCUT                                 
     0    -13.7508458     23  1.200                                             
     0     -8.2022199     23  1.200                                             
     1     -5.2854383     23  1.500                                             
     1     34.0145650     23  1.500                                             
     2     -5.4423304      7  1.500                                             
  local pseudopotential read in
  partial core-charges read in
  partial kinetic energy density read in
  atomic valenz-charges read in
  non local Contribution for L=           0  read in
    real space projection operators read in
  non local Contribution for L=           0  read in
    real space projection operators read in
  non local Contribution for L=           1  read in
    real space projection operators read in
  non local Contribution for L=           1  read in
    real space projection operators read in
    PAW grid and wavefunctions read in
 
   number of l-projection  operators is LMAX  =           4
   number of lm-projection operators is LMMAX =           8
 
  PAW_PBE O 08Apr2002                   :
 energy of atom  1       EATOM= -432.3788
 kinetic energy error for atom=    0.1156 (will be added to EATOM!!)
  PAW_PBE C 08Apr2002                   :
 energy of atom  2       EATOM= -147.1560
 kinetic energy error for atom=    0.0288 (will be added to EATOM!!)
 
 
 POSCAR: CO molecule in a box                    
  positions in cartesian coordinates
  No initial velocities read in
 exchange correlation table for  LEXCH =        8
   RHO(1)=    0.500       N(1)  =     2000
   RHO(2)=  100.500       N(2)  =     4000
 


--------------------------------------------------------------------------------------------------------


 ion  position               nearest neighbor table
   1  0.000  0.000  0.000-   2 1.12
   2  0.000  0.000  0.140-   1 1.12
 
  LATTYP: Found a simple cubic cell.
 ALAT       =     8.0000000000
  
  Lattice vectors:
  
 A1 = (   8.0000000000,   0.0000000000,   0.0000000000)
 A2 = (   0.0000000000,   8.0000000000,   0.0000000000)
 A3 = (   0.0000000000,   0.0000000000,   8.0000000000)


Analysis of symmetry for initial positions (statically):
=====================================================================
 Subroutine PRICEL returns:
 Original cell was already a primitive cell.
 

 Routine SETGRP: Setting up the symmetry group for a 
 simple cubic supercell.


 Subroutine GETGRP returns: Found  8 space group operations
 (whereof  8 operations were pure point group operations)
 out of a pool of 48 trial point group operations.


The static configuration has the point symmetry C_4v.


Analysis of symmetry for dynamics (positions and initial velocities):
=====================================================================
 Subroutine PRICEL returns:
 Original cell was already a primitive cell.
 

 Routine SETGRP: Setting up the symmetry group for a 
 simple cubic supercell.


 Subroutine GETGRP returns: Found  8 space group operations
 (whereof  8 operations were pure point group operations)
 out of a pool of 48 trial point group operations.


The dynamic configuration has the point symmetry C_4v.
 
 
 KPOINTS: Gamma-point only                        
  k-points in reciprocal lattice
Space group operators:
 irot       det(A)        alpha          n_x          n_y          n_z        tau_x        tau_y        tau_z
    1     1.000000     0.000000     1.000000     0.000000     0.000000     0.000000     0.000000     0.000000
    2     1.000000    90.000000     0.000000     0.000000    -1.000000     0.000000     0.000000     0.000000
    3     1.000000   180.000000     0.000000     0.000000     1.000000     0.000000     0.000000     0.000000
    4     1.000000    90.000000     0.000000     0.000000     1.000000     0.000000     0.000000     0.000000
    5    -1.000000   180.000000     1.000000     0.000000     0.000000     0.000000     0.000000     0.000000
    6    -1.000000   180.000000     0.707107     0.707107     0.000000     0.000000     0.000000     0.000000
    7    -1.000000   180.000000     0.000000     1.000000     0.000000     0.000000     0.000000     0.000000
    8    -1.000000   180.000000     0.707107    -0.707107     0.000000     0.000000     0.000000     0.000000


--------------------------------------------------------------------------------------------------------




 Dimension of arrays:
   k-points           NKPTS =      1   k-points in BZ     NKDIM =      1   number of bands    NBANDS=      9
   number of dos      NEDOS =    301   number of ions     NIONS =      2
   non local maximal  LDIM  =      4   non local SUM 2l+1 LMDIM =      8
   total plane-waves  NPLWV =  64000
   max r-space proj   IRMAX =      1   max aug-charges    IRDMAX=   1821
   dimension x,y,z NGX =    40 NGY =   40 NGZ =   40
   dimension x,y,z NGXF=    80 NGYF=   80 NGZF=   80
   support grid    NGXF=    80 NGYF=   80 NGZF=   80
   ions per type =               1   1
 NGX,Y,Z   is equivalent  to a cutoff of   8.31,  8.31,  8.31 a.u.
 NGXF,Y,Z  is equivalent  to a cutoff of  16.62, 16.62, 16.62 a.u.


 I would recommend the setting:
   dimension x,y,z NGX =    39 NGY =   39 NGZ =   39
 SYSTEM =  CO molecule in a box                    
 POSCAR =  CO molecule in a box                    

 Startparameter for this run:
   NWRITE =      2    write-flag & timer
   PREC   = normal    normal or accurate (medium, high low for compatibility)
   ISTART =      1    job   : 0-new  1-cont  2-samecut
   ICHARG =      0    charge: 1-file 2-atom 10-const
   ISPIN  =      1    spin polarized calculation?
   LNONCOLLINEAR =      F non collinear calculations
   LSORBIT =      F    spin-orbit coupling
   INIWAV =      1    electr: 0-lowe 1-rand  2-diag
   LASPH  =      F    aspherical Exc in radial PAW
   METAGGA=      F    non-selfconsistent MetaGGA calc.

 Electronic Relaxation 1
   ENCUT  =  400.0 eV  29.40 Ry    5.42 a.u.  13.05 13.05 13.05*2*pi/ulx,y,z
   ENINI  =  400.0     initial cutoff
   ENAUG  =  644.9 eV  augmentation charge cutoff
   NELM   =     60;   NELMIN=  2; NELMDL=  0     # of ELM steps 
   EDIFF  = 0.1E-03   stopping-criterion for ELM
   LREAL  =      F    real-space projection
   NLSPLINE    = F    spline interpolate recip. space projectors
   LCOMPAT=      F    compatible to vasp.4.4
   GGA_COMPAT  = T    GGA compatible to vasp.4.4-vasp.4.6
   LMAXPAW     = -100 max onsite density
   LMAXMIX     =    2 max onsite mixed and CHGCAR
   VOSKOWN=      0    Vosko Wilk Nusair interpolation
   ROPT   =    0.00000   0.00000
 Ionic relaxation
   EDIFFG = 0.1E-02   stopping-criterion for IOM
   NSW    =      5    number of steps for IOM
   NBLOCK =      1;   KBLOCK =      5    inner block; outer block 
   IBRION =      2    ionic relax: 0-MD 1-quasi-New 2-CG
   NFREE  =      1    steps in history (QN), initial steepest desc. (CG)
   ISIF   =      2    stress and relaxation
   IWAVPR =     11    prediction:  0-non 1-charg 2-wave 3-comb
   ISYM   =      2    0-nonsym 1-usesym 2-fastsym
   LCORR  =      T    Harris-Foulkes like correction to forces

   POTIM  = 0.5000    time-step for ionic-motion
   TEIN   =    0.0    initial temperature
   TEBEG  =    0.0;   TEEND  =   0.0 temperature during run
   SMASS  =  -3.00    Nose mass-parameter (am)
   estimated Nose-frequenzy (Omega)   =  0.10E-29 period in steps =****** mass=  -0.146E-26a.u.
   SCALEE = 1.0000    scale energy and forces
   NPACO  =    256;   APACO  = 16.0  distance and # of slots for P.C.
   PSTRESS=    0.0 pullay stress

  Mass of Ions in am
   POMASS =  16.00 12.01
  Ionic Valenz
   ZVAL   =   6.00  4.00
  Atomic Wigner-Seitz radii
   RWIGS  =  -1.00 -1.00
  virtual crystal weights 
   VCA    =   1.00  1.00
   NELECT =      10.0000    total number of electrons
   NUPDOWN=      -1.0000    fix difference up-down

 DOS related values:
   EMIN   =  10.00;   EMAX   =-10.00  energy-range for DOS
   EFERMI =   0.00
   ISMEAR =     0;   SIGMA  =   0.20  broadening in eV -4-tet -1-fermi 0-gaus

 Electronic relaxation 2 (details)
   IALGO  =     38    algorithm
   LDIAG  =      T    sub-space diagonalisation (order eigenvalues)
   LSUBROT=      F    optimize rotation matrix (better conditioning)
   TURBO    =      0    0=normal 1=particle mesh
   IRESTART =      0    0=no restart 2=restart with 2 vectors
   NREBOOT  =      0    no. of reboots
   NMIN     =      0    reboot dimension
   EREF     =   0.00    reference energy to select bands
   IMIX   =      4    mixing-type and parameters
     AMIX     =   0.40;   BMIX     =  1.00
     AMIX_MAG =   1.60;   BMIX_MAG =  1.00
     AMIN     =   0.10
     WC   =   100.;   INIMIX=   1;  MIXPRE=   1;  MAXMIX= -45

 Intra band minimization:
   WEIMIN = 0.0010     energy-eigenvalue tresh-hold
   EBREAK =  0.28E-05  absolut break condition
   DEPER  =   0.30     relativ break condition  

   TIME   =   0.40     timestep for ELM

  volume/ion in A,a.u.               =     256.00      1727.57
  Fermi-wavevector in a.u.,A,eV,Ry     =   0.440878  0.833138  2.644608  0.194373
  Thomas-Fermi vector in A             =   1.415836
 
 Write flags
   LWAVE  =      T    write WAVECAR
   LCHARG =      T    write CHGCAR
   LVTOT  =      F    write LOCPOT, total local potential
   LVHAR  =      F    write LOCPOT, Hartree potential only
   LELF   =      F    write electronic localiz. function (ELF)
   LORBIT =      0    0 simple, 1 ext, 2 COOP (PROOUT)


 Dipole corrections
   LMONO  =      F    monopole corrections only (constant potential shift)
   LDIPOL =      F    correct potential (dipole corrections)
   IDIPOL =      0    1-x, 2-y, 3-z, 4-all directions 
   EPSILON=  1.0000000 bulk dielectric constant

 Exchange correlation treatment:
   GGA     =    --    GGA type
   LEXCH   =     8    internal setting for exchange type
   VOSKOWN=      0    Vosko Wilk Nusair interpolation
   LHFCALC =     F    Hartree Fock is set to
   LHFONE  =     F    Hartree Fock one center treatment
   AEXX    =    0.0000 exact exchange contribution

 Linear response parameters
   LEPSILON=     F    determine dielectric tensor
   LRPA    =     F    only Hartree local field effects (RPA)
   LNABLA  =     F    use nabla operator in PAW spheres
   LVEL    =     F    velocity operator in full k-point grid
   LINTERFAST=   F  fast interpolation
   KINTER  =     0    interpolate to denser k-point grid
   CSHIFT  =0.1000    complex shift for real part using Kramers Kronig
   OMEGAMAX=  -1.0    maximum frequency
   DEG_THRESHOLD= 0.2000000E-02 threshold for treating states as degnerate
   RTIME   =    0.100 relaxation time in fs

 Orbital magnetization related:
   ORBITALMAG=     F  switch on orbital magnetization
   LCHIMAG   =     F  perturbation theory with respect to B field
   DQ        =  0.001000  dq finite difference perturbation B field



--------------------------------------------------------------------------------------------------------


 conjugate gradient relaxation of ions
 charge density and potential will be updated during run
 non-spin polarized calculation
 Variant of blocked Davidson
 Davidson routine will perform the subspace rotation
 perform sub-space diagonalisation
    after iterative eigenvector-optimisation
 modified Broyden-mixing scheme, WC =      100.0
 initial mixing is a Kerker type mixing with AMIX =  0.4000 and BMIX =      1.0000
 Hartree-type preconditioning will be used
 using additional bands            4
 reciprocal scheme for non local part
 use partial core corrections
 calculate Harris-corrections to forces 
   (improved forces if not selfconsistent)
 use gradient corrections 
 use of overlap-Matrix (Vanderbilt PP)
 Gauss-broadening in eV      SIGMA  =   0.20


--------------------------------------------------------------------------------------------------------


  energy-cutoff  :      400.00
  volume of cell :      512.00
      direct lattice vectors                 reciprocal lattice vectors
     8.000000000  0.000000000  0.000000000     0.125000000  0.000000000  0.000000000
     0.000000000  8.000000000  0.000000000     0.000000000  0.125000000  0.000000000
     0.000000000  0.000000000  8.000000000     0.000000000  0.000000000  0.125000000

  length of vectors
     8.000000000  8.000000000  8.000000000     0.125000000  0.125000000  0.125000000


 
 old parameters found on file WAVECAR:
  energy-cutoff  :      400.00
  volume of cell :      512.00
      direct lattice vectors                 reciprocal lattice vectors
     8.000000000  0.000000000  0.000000000     0.125000000  0.000000000  0.000000000
     0.000000000  8.000000000  0.000000000     0.000000000  0.125000000  0.000000000
     0.000000000  0.000000000  8.000000000     0.000000000  0.000000000  0.125000000

  length of vectors

 
 k-points in units of 2pi/SCALE and weight: Gamma-point only                        
   0.00000000  0.00000000  0.00000000       1.000
 
 k-points in reciprocal lattice and weights: Gamma-point only                        
   0.00000000  0.00000000  0.00000000       1.000
 
 position of ions in fractional coordinates (direct lattice) 
   0.00000000  0.00000000  0.00000000
   0.00000000  0.00000000  0.14000000
 
 position of ions in cartesian coordinates  (Angst):
   0.00000000  0.00000000  0.00000000
   0.00000000  0.00000000  1.12000000
 


--------------------------------------------------------------------------------------------------------


 k-point  1 :   0.0000 0.0000 0.0000  plane waves:    9315

 maximum number of plane-waves:      9315
 maximum index in each direction: 
   IXMAX=   13   IYMAX=   13   IZMAX=   13
   IXMIN=  -13   IYMIN=  -13   IZMIN=  -13

 WARNING: aliasing errors must be expected set NGX to  54 to avoid them
 WARNING: aliasing errors must be expected set NGY to  54 to avoid them
 WARNING: aliasing errors must be expected set NGZ to  54 to avoid them
 aliasing errors are usually negligible using standard VASP settings
 and one can safely disregard these warnings

 total amount of memory used by VASP on root node    64608. kBytes
========================================================================

   base      :      30000. kBytes
   nonl-proj :       1490. kBytes
   grid      :      31769. kBytes
   one-center:          6. kBytes
   wavefun   :       1343. kBytes
 
     INWAV:  cpu time    0.00: real time    0.05
 Broyden mixing: mesh for mixing (old mesh)
   NGX = 27   NGY = 27   NGZ = 27
  (NGX  = 80   NGY  = 80   NGZ  = 80)
  gives a total of  19683 points

 charge density for first step will be calculated from the start-wavefunctions


--------------------------------------------------------------------------------------------------------


 Maximum index for augmentation-charges         1575 (set IRDMAX)


--------------------------------------------------------------------------------------------------------


 initial charge from wavefunction
 First call to EWALD:  gamma=   0.222
 Maximum number of real-space cells 3x 3x 3
 Maximum number of reciprocal cells 3x 3x 3

    FEWALD:  cpu time    0.00: real time    0.00


----------------------------------------- Iteration    1(   1)  ---------------------------------------


    POTLOK:  cpu time    0.61: real time    0.62
    SETDIJ:  cpu time    0.00: real time    0.01
     EDDAV:  cpu time    0.29: real time    0.29
       DOS:  cpu time    0.00: real time    0.00
    CHARGE:  cpu time    0.08: real time    0.08
    MIXING:  cpu time    0.02: real time    0.02
    --------------------------------------------
      LOOP:  cpu time    1.01: real time    1.03

 eigenvalue-minimisations  :    20
 total energy-change (2. order) :-0.1484162E+02  (-0.2956765E+00)
 number of electron      10.0000100 magnetization 
 augmentation part        0.6587829 magnetization 

 Broyden mixing:
  rms(total) = 0.19367E+00    rms(broyden)= 0.19355E+00
  rms(prec ) = 0.23948E+00
  weight for this iteration     100.00

 Free energy of the ion-electron system (eV)
  ---------------------------------------------------
  alpha Z        PSCENC =         0.85343271
  Ewald energy   TEWEN  =        55.03899630
  -Hartree energ DENC   =      -533.60365974
  -exchange      EXHF   =         0.00000000
  -V(xc)+E(xc)   XCENC  =        40.43155300
  PAW double counting   =       866.42766946     -868.92799141
  entropy T*S    EENTRO =         0.00000000
  eigenvalues    EBANDS =      -154.45203580
  atomic energy  EATOM  =       579.39041991
  ---------------------------------------------------
  free energy    TOTEN  =       -14.84161557 eV

  energy without entropy =      -14.84161557  energy(sigma->0) =      -14.84161557


--------------------------------------------------------------------------------------------------------




----------------------------------------- Iteration    1(   2)  ---------------------------------------


    POTLOK:  cpu time    0.57: real time    0.58
    SETDIJ:  cpu time    0.00: real time    0.01
     EDDAV:  cpu time    0.26: real time    0.26
       DOS:  cpu time    0.00: real time    0.00
    CHARGE:  cpu time    0.07: real time    0.07
    MIXING:  cpu time    0.02: real time    0.02
    --------------------------------------------
      LOOP:  cpu time    0.94: real time    0.94

 eigenvalue-minimisations  :    18
 total energy-change (2. order) : 0.5509534E-01  (-0.1346908E-01)
 number of electron      10.0000101 magnetization 
 augmentation part        0.6679164 magnetization 

 Broyden mixing:
  rms(total) = 0.97115E-01    rms(broyden)= 0.97109E-01
  rms(prec ) = 0.12249E+00
  weight for this iteration     100.00

 eigenvalues of (default mixing * dielectric matrix)
  average eigenvalue GAMMA=   1.7510
  1.7510

 Free energy of the ion-electron system (eV)
  ---------------------------------------------------
  alpha Z        PSCENC =         0.85343271
  Ewald energy   TEWEN  =        55.03899630
  -Hartree energ DENC   =      -535.37200744
  -exchange      EXHF   =         0.00000000
  -V(xc)+E(xc)   XCENC  =        40.49681992
  PAW double counting   =       885.18313523     -887.66736709
  entropy T*S    EENTRO =         0.00000000
  eigenvalues    EBANDS =      -152.70994977
  atomic energy  EATOM  =       579.39041991
  ---------------------------------------------------
  free energy    TOTEN  =       -14.78652023 eV

  energy without entropy =      -14.78652023  energy(sigma->0) =      -14.78652023


--------------------------------------------------------------------------------------------------------




----------------------------------------- Iteration    1(   3)  ---------------------------------------


    POTLOK:  cpu time    0.58: real time    0.58
    SETDIJ:  cpu time    0.00: real time    0.00
     EDDAV:  cpu time    0.36: real time    0.36
       DOS:  cpu time    0.00: real time    0.00
    CHARGE:  cpu time    0.08: real time    0.08
    MIXING:  cpu time    0.02: real time    0.02
    --------------------------------------------
      LOOP:  cpu time    1.04: real time    1.05

 eigenvalue-minimisations  :    27
 total energy-change (2. order) : 0.2069045E-01  (-0.7735547E-02)
 number of electron      10.0000100 magnetization 
 augmentation part        0.6642002 magnetization 

 Broyden mixing:
  rms(total) = 0.23067E-01    rms(broyden)= 0.23048E-01
  rms(prec ) = 0.27798E-01
  weight for this iteration     100.00

 eigenvalues of (default mixing * dielectric matrix)
  average eigenvalue GAMMA=   1.4081
  2.0284  0.7878

 Free energy of the ion-electron system (eV)
  ---------------------------------------------------
  alpha Z        PSCENC =         0.85343271
  Ewald energy   TEWEN  =        55.03899630
  -Hartree energ DENC   =      -537.80956829
  -exchange      EXHF   =         0.00000000
  -V(xc)+E(xc)   XCENC  =        40.59782139
  PAW double counting   =       899.73112316     -902.22734151
  entropy T*S    EENTRO =         0.00000000
  eigenvalues    EBANDS =      -150.34071346
  atomic energy  EATOM  =       579.39041991
  ---------------------------------------------------
  free energy    TOTEN  =       -14.76582978 eV

  energy without entropy =      -14.76582978  energy(sigma->0) =      -14.76582978


--------------------------------------------------------------------------------------------------------




----------------------------------------- Iteration    1(   4)  ---------------------------------------


    POTLOK:  cpu time    0.58: real time    0.59
    SETDIJ:  cpu time    0.00: real time    0.01
     EDDAV:  cpu time    0.26: real time    0.27
       DOS:  cpu time    0.00: real time    0.00
    CHARGE:  cpu time    0.08: real time    0.08
    MIXING:  cpu time    0.02: real time    0.03
    --------------------------------------------
      LOOP:  cpu time    0.95: real time    0.96

 eigenvalue-minimisations  :    18
 total energy-change (2. order) : 0.2344331E-03  (-0.3988945E-03)
 number of electron      10.0000101 magnetization 
 augmentation part        0.6653369 magnetization 

 Broyden mixing:
  rms(total) = 0.12214E-01    rms(broyden)= 0.12211E-01
  rms(prec ) = 0.14660E-01
  weight for this iteration     100.00

 eigenvalues of (default mixing * dielectric matrix)
  average eigenvalue GAMMA=   1.2873
  2.1241  0.8688  0.8688

 Free energy of the ion-electron system (eV)
  ---------------------------------------------------
  alpha Z        PSCENC =         0.85343271
  Ewald energy   TEWEN  =        55.03899630
  -Hartree energ DENC   =      -537.88610782
  -exchange      EXHF   =         0.00000000
  -V(xc)+E(xc)   XCENC  =        40.59603116
  PAW double counting   =       902.63233952     -905.12537306
  entropy T*S    EENTRO =         0.00000000
  eigenvalues    EBANDS =      -150.26533408
  atomic energy  EATOM  =       579.39041991
  ---------------------------------------------------
  free energy    TOTEN  =       -14.76559535 eV

  energy without entropy =      -14.76559535  energy(sigma->0) =      -14.76559535


--------------------------------------------------------------------------------------------------------




----------------------------------------- Iteration    1(   5)  ---------------------------------------


    POTLOK:  cpu time    0.57: real time    0.57
    SETDIJ:  cpu time    0.00: real time    0.00
     EDDAV:  cpu time    0.27: real time    0.27
       DOS:  cpu time    0.00: real time    0.00
    --------------------------------------------
      LOOP:  cpu time    0.85: real time    0.85

 eigenvalue-minimisations  :    19
 total energy-change (2. order) :-0.5351412E-04  (-0.2899498E-04)
 number of electron      10.0000101 magnetization 
 augmentation part        0.6653369 magnetization 

 Free energy of the ion-electron system (eV)
  ---------------------------------------------------
  alpha Z        PSCENC =         0.85343271
  Ewald energy   TEWEN  =        55.03899630
  -Hartree energ DENC   =      -537.82562631
  -exchange      EXHF   =         0.00000000
  -V(xc)+E(xc)   XCENC  =        40.59125509
  PAW double counting   =       903.92885917     -906.42003068
  entropy T*S    EENTRO =         0.00000000
  eigenvalues    EBANDS =      -150.32295506
  atomic energy  EATOM  =       579.39041991
  ---------------------------------------------------
  free energy    TOTEN  =       -14.76564886 eV

  energy without entropy =      -14.76564886  energy(sigma->0) =      -14.76564886


--------------------------------------------------------------------------------------------------------




 average (electrostatic) potential at core
  the test charge radii are     0.7215  0.6991
  (the norm of the test charge is              1.0000)
       1 -83.4029       2 -61.3367
 
 
 
 E-fermi :  -7.7860     XC(G=0):  -1.2655     alpha+bet : -0.3420


 k-point     1 :       0.0000    0.0000    0.0000
  band No.  band energies     occupation 
      1     -29.3294      2.00000
      2     -13.7526      2.00000
      3     -11.6787      2.00000
      4     -11.6787      2.00000
      5      -8.7221      2.00000
      6      -1.6370      0.00000
      7      -1.6370      0.00000
      8      -0.3293      0.00000
      9       1.6333      0.00000


--------------------------------------------------------------------------------------------------------


 soft charge-density along one line, spin component           1
         0         1         2         3         4         5         6         7         8         9
x     9.3347    0.0000    8.7190    0.0000    7.1833    0.0000    5.3464    0.0000    3.6763    0.0000
x     2.3664    0.0000    1.4294    0.0000    0.8026    0.0000    0.4066    0.0000    0.1708    0.0000
x     0.0404    0.0000   -0.0237    0.0000   -0.0482    0.0000   -0.0501    0.0000   -0.0413    0.0000
x    -0.0298    0.0000   -0.0197    0.0000   -0.0124    0.0000   -0.0076    0.0000   -0.0050    0.0000
x     0.0000    0.0000
y     9.3347    0.0000    8.7190    0.0000    7.1833    0.0000    5.3464    0.0000    3.6763    0.0000
y     2.3664    0.0000    1.4294    0.0000    0.8026    0.0000    0.4066    0.0000    0.1708    0.0000
y     0.0404    0.0000   -0.0237    0.0000   -0.0482    0.0000   -0.0501    0.0000   -0.0413    0.0000
y    -0.0298    0.0000   -0.0197    0.0000   -0.0124    0.0000   -0.0076    0.0000   -0.0050    0.0000
y     0.0000    0.0000
z     9.3347    0.0000    7.3003   -2.7583    3.7267   -2.5239    1.8706   -0.6739    1.6272    0.3637
z     1.4893    0.2646    0.9130   -0.0637    0.2757   -0.0707   -0.0431    0.1350   -0.0535    0.2659
z     0.0273    0.2248    0.0478    0.1027    0.0024    0.0140   -0.0458   -0.0064   -0.0564    0.0088
z    -0.0381    0.0200   -0.0167    0.0166   -0.0054    0.0073   -0.0030    0.0007   -0.0038   -0.0011
z     0.0000    0.0000
 total charge-density along one line
x    10.0000    0.0000    9.3766    0.0000    7.8202    0.0000    5.9476    0.0000    4.2284    0.0000
x     2.8599    0.0000    1.8587    0.0000    1.1657    0.0000    0.7048    0.0000    0.4081    0.0000
x     0.2228    0.0000    0.1111    0.0000    0.0472    0.0000    0.0140    0.0000   -0.0007    0.0000
x    -0.0061    0.0000   -0.0074    0.0000   -0.0070    0.0000   -0.0061    0.0000   -0.0051    0.0000
x    -0.0006    0.0000   -0.0005    0.0000   -0.0001    0.0000    0.0002    0.0000    0.0003    0.0000
x     0.0003    0.0000    0.0002    0.0000    0.0001    0.0000    0.0000    0.0000   -0.0001    0.0000
x    -0.0001    0.0000   -0.0001    0.0000   -0.0001    0.0000    0.0000    0.0000    0.0000    0.0000
x     0.0001    0.0000    0.0001    0.0000    0.0000    0.0000    0.0000    0.0000    0.0000    0.0000
x     0.0000    0.0000
y    10.0000    0.0000    9.3766    0.0000    7.8202    0.0000    5.9476    0.0000    4.2284    0.0000
y     2.8599    0.0000    1.8587    0.0000    1.1657    0.0000    0.7048    0.0000    0.4081    0.0000
y     0.2228    0.0000    0.1111    0.0000    0.0472    0.0000    0.0140    0.0000   -0.0007    0.0000
y    -0.0061    0.0000   -0.0074    0.0000   -0.0070    0.0000   -0.0061    0.0000   -0.0051    0.0000
y    -0.0006    0.0000   -0.0005    0.0000   -0.0001    0.0000    0.0002    0.0000    0.0003    0.0000
y     0.0003    0.0000    0.0002    0.0000    0.0001    0.0000    0.0000    0.0000   -0.0001    0.0000
y    -0.0001    0.0000   -0.0001    0.0000   -0.0001    0.0000    0.0000    0.0000    0.0000    0.0000
y     0.0001    0.0000    0.0001    0.0000    0.0000    0.0000    0.0000    0.0000    0.0000    0.0000
y     0.0000    0.0000
z    10.0000    0.0000    7.9361   -2.7761    4.3112   -2.5536    2.3939   -0.6873    2.0998    0.3773
z     1.9190    0.2917    1.2920   -0.0407    0.5909   -0.0569    0.2044    0.1449    0.1344    0.2761
z     0.1665    0.2321    0.1439    0.1020    0.0576    0.0066   -0.0253   -0.0130   -0.0576    0.0099
z    -0.0461    0.0284   -0.0226    0.0259   -0.0081    0.0120   -0.0054    0.0001   -0.0075   -0.0037
z    -0.0037   -0.0018   -0.0021   -0.0004   -0.0002    0.0000    0.0007   -0.0002    0.0007   -0.0002
z     0.0005    0.0000    0.0004    0.0002    0.0002    0.0001   -0.0001    0.0000   -0.0003    0.0000
z    -0.0003    0.0001   -0.0002    0.0001    0.0000    0.0000    0.0000    0.0000    0.0001    0.0000
z     0.0001    0.0000    0.0001    0.0000    0.0000    0.0000    0.0000    0.0000   -0.0001    0.0000
z    -0.0001    0.0000
 
 pseudopotential strength for first ion, spin component:           1
 14.208 -17.446   0.000  -0.157   0.000   0.000   0.198   0.000
-17.446  21.456   0.000   0.198   0.000   0.000  -0.251   0.000
  0.000   0.000 -11.013   0.000   0.000  13.731   0.000   0.000
 -0.157   0.198   0.000 -11.177   0.000   0.000  13.947   0.000
  0.000   0.000   0.000   0.000 -11.013   0.000   0.000  13.731
  0.000   0.000  13.731   0.000   0.000 -17.065   0.000   0.000
  0.198  -0.251   0.000  13.947   0.000   0.000 -17.351   0.000
  0.000   0.000   0.000   0.000  13.731   0.000   0.000 -17.065
 total augmentation occupancy for first ion, spin component:           1
  3.089   0.608   0.000   0.755   0.000   0.000   0.316   0.000
  0.608   0.222   0.000   0.561   0.000   0.000   0.156   0.000
  0.000   0.000   1.998   0.000   0.000   0.235   0.000   0.000
  0.755   0.561   0.000   2.935   0.000   0.000   0.534   0.000
  0.000   0.000   0.000   0.000   1.998   0.000   0.000   0.235
  0.000   0.000   0.235   0.000   0.000   0.028   0.000   0.000
  0.316   0.156   0.000   0.534   0.000   0.000   0.124   0.000
  0.000   0.000   0.000   0.000   0.235   0.000   0.000   0.028


------------------------ aborting loop because EDIFF is reached ----------------------------------------


    CHARGE:  cpu time    0.07: real time    0.07
    FORLOC:  cpu time    0.04: real time    0.04
    FORNL :  cpu time    0.03: real time    0.03
    STRESS:  cpu time    0.20: real time    0.21
    FORCOR:  cpu time    0.64: real time    0.65
    FORHAR:  cpu time    0.18: real time    0.18
    MIXING:  cpu time    0.02: real time    0.03
    OFIELD:  cpu time    0.00: real time    0.00

  FORCE on cell =-STRESS in cart. coord.  units (eV):
  Direction    XX          YY          ZZ          XY          YZ          ZX
  --------------------------------------------------------------------------------------
  Alpha Z     0.85343     0.85343     0.85343
  Ewald     -85.97175   -85.97175   226.98245     0.00000     0.00000     0.00000
  Hartree   142.39649   142.39649   253.02562     0.00000     0.00000     0.00000
  E(xc)     -44.18277   -44.18277   -43.06765     0.00000     0.00000     0.00000
  Local    -193.12291  -193.12291  -586.86228     0.00000     0.00000     0.00000
  n-local   -18.78175   -18.78175   -30.44882     0.00000     0.00000     0.00000
  augment     6.25767     6.25767     5.60216     0.00000     0.00000     0.00000
  Kinetic   191.70719   191.70719   176.44592     0.00000     0.00000     0.00000
  Fock        0.00000     0.00000     0.00000     0.00000     0.00000     0.00000
  -------------------------------------------------------------------------------------
  Total      -0.84439    -0.84439     2.53083     0.00000     0.00000     0.00000
  in kB      -2.64232    -2.64232     7.91959     0.00000     0.00000     0.00000
  external pressure =        0.88 kB  Pullay stress =        0.00 kB


 VOLUME and BASIS-vectors are now :
 -----------------------------------------------------------------------------
  energy-cutoff  :      400.00
  volume of cell :      512.00
      direct lattice vectors                 reciprocal lattice vectors
     8.000000000  0.000000000  0.000000000     0.125000000  0.000000000  0.000000000
     0.000000000  8.000000000  0.000000000     0.000000000  0.125000000  0.000000000
     0.000000000  0.000000000  8.000000000     0.000000000  0.000000000  0.125000000

  length of vectors
     8.000000000  8.000000000  8.000000000     0.125000000  0.125000000  0.125000000


 FORCES acting on ions
    electron-ion (+dipol)            ewald-force                    non-local-force                 convergence-correction
 -----------------------------------------------------------------------------------------------
   0.124E-12 0.370E-14 0.208E+03   -.985E-16 -.206E-15 -.272E+03   0.323E-26 -.323E-26 0.611E+02   -.168E-13 0.413E-13 0.696E-01
   -.187E-04 -.582E-16 -.241E+03   0.101E-15 0.172E-15 0.272E+03   0.000E+00 0.000E+00 -.281E+02   -.151E-13 0.186E-13 -.358E-01
 -----------------------------------------------------------------------------------------------
   -.187E-04 0.364E-14 -.331E+02   0.264E-17 -.340E-16 0.000E+00   0.323E-26 -.323E-26 0.331E+02   -.319E-13 0.599E-13 0.339E-01
 
 
 POSITION                                       TOTAL-FORCE (eV/Angst)
 -----------------------------------------------------------------------------------
      0.00000      0.00000      0.00000         0.000000      0.000000     -2.963446
      0.00000      0.00000      1.12000         0.000000      0.000000      2.963446
 -----------------------------------------------------------------------------------
    total drift:                               -0.000019      0.000000     -0.002929


--------------------------------------------------------------------------------------------------------



  FREE ENERGIE OF THE ION-ELECTRON SYSTEM (eV)
  ---------------------------------------------------
  free  energy   TOTEN  =       -14.76564886 eV

  energy  without entropy=      -14.76564886  energy(sigma->0) =      -14.76564886
 


--------------------------------------------------------------------------------------------------------


    POTLOK:  cpu time    0.58: real time    0.58


--------------------------------------------------------------------------------------------------------




--------------------------------------------------------------------------------------------------------


    WAVPRE:  cpu time    0.19: real time    0.19
    FEWALD:  cpu time    0.00: real time    0.00
    ORTHCH:  cpu time    0.01: real time    0.01
     LOOP+:  cpu time    7.63: real time    7.69


----------------------------------------- Iteration    2(   1)  ---------------------------------------


    POTLOK:  cpu time    0.56: real time    0.56
    SETDIJ:  cpu time    0.00: real time    0.00
     EDDAV:  cpu time    0.27: real time    0.27
       DOS:  cpu time    0.00: real time    0.00
    CHARGE:  cpu time    0.07: real time    0.07
    MIXING:  cpu time    0.02: real time    0.02
    --------------------------------------------
      LOOP:  cpu time    0.94: real time    0.94

 eigenvalue-minimisations  :    20
 total energy-change (2. order) : 0.1954293E+01  (-0.1989574E+02)
 number of electron      10.0000022 magnetization 
 augmentation part        0.5658601 magnetization 

 Broyden mixing:
  rms(total) = 0.49895E+00    rms(broyden)= 0.49828E+00
  rms(prec ) = 0.66009E+00
  weight for this iteration     100.00

 Free energy of the ion-electron system (eV)
  ---------------------------------------------------
  alpha Z        PSCENC =         0.85343271
  Ewald energy   TEWEN  =        -6.61722699
  -Hartree energ DENC   =      -497.11450860
  -exchange      EXHF   =         0.00000000
  -V(xc)+E(xc)   XCENC  =        39.48240316
  PAW double counting   =       904.63182867     -907.12065975
  entropy T*S    EENTRO =         0.00000000
  eigenvalues    EBANDS =      -126.31699190
  atomic energy  EATOM  =       579.39041991
  ---------------------------------------------------
  free energy    TOTEN  =       -12.81130279 eV

  energy without entropy =      -12.81130279  energy(sigma->0) =      -12.81130279


--------------------------------------------------------------------------------------------------------




----------------------------------------- Iteration    2(   2)  ---------------------------------------


    POTLOK:  cpu time    0.52: real time    0.52
    SETDIJ:  cpu time    0.00: real time    0.00
     EDDAV:  cpu time    0.29: real time    0.29
       DOS:  cpu time    0.00: real time    0.00
    CHARGE:  cpu time    0.08: real time    0.08
    MIXING:  cpu time    0.02: real time    0.02
    --------------------------------------------
      LOOP:  cpu time    0.92: real time    0.92

 eigenvalue-minimisations  :    20
 total energy-change (2. order) : 0.1463505E+00  (-0.4362847E+00)
 number of electron      10.0000019 magnetization 
 augmentation part        0.5220219 magnetization 

 Broyden mixing:
  rms(total) = 0.25099E+00    rms(broyden)= 0.25089E+00
  rms(prec ) = 0.31500E+00
  weight for this iteration     100.00

 eigenvalues of (default mixing * dielectric matrix)
  average eigenvalue GAMMA=   1.1902
  1.1902

 Free energy of the ion-electron system (eV)
  ---------------------------------------------------
  alpha Z        PSCENC =         0.85343271
  Ewald energy   TEWEN  =        -6.61722699
  -Hartree energ DENC   =      -492.35042753
  -exchange      EXHF   =         0.00000000
  -V(xc)+E(xc)   XCENC  =        39.13809457
  PAW double counting   =       768.46760728     -770.87437996
  entropy T*S    EENTRO =         0.00000000
  eigenvalues    EBANDS =      -130.67247224
  atomic energy  EATOM  =       579.39041991
  ---------------------------------------------------
  free energy    TOTEN  =       -12.66495225 eV

  energy without entropy =      -12.66495225  energy(sigma->0) =      -12.66495225


--------------------------------------------------------------------------------------------------------




----------------------------------------- Iteration    2(   3)  ---------------------------------------


    POTLOK:  cpu time    0.53: real time    0.54
    SETDIJ:  cpu time    0.00: real time    0.00
     EDDAV:  cpu time    0.37: real time    0.37
       DOS:  cpu time    0.00: real time    0.00
    CHARGE:  cpu time    0.08: real time    0.08
    MIXING:  cpu time    0.02: real time    0.02
    --------------------------------------------
      LOOP:  cpu time    1.01: real time    1.02

 eigenvalue-minimisations  :    28
 total energy-change (2. order) : 0.3688979E-01  (-0.8071037E-01)
 number of electron      10.0000025 magnetization 
 augmentation part        0.5653908 magnetization 

 Broyden mixing:
  rms(total) = 0.15746E+00    rms(broyden)= 0.15731E+00
  rms(prec ) = 0.22370E+00
  weight for this iteration     100.00

 eigenvalues of (default mixing * dielectric matrix)
  average eigenvalue GAMMA=   1.1012
  0.5598  1.6427

 Free energy of the ion-electron system (eV)
  ---------------------------------------------------
  alpha Z        PSCENC =         0.85343271
  Ewald energy   TEWEN  =        -6.61722699
  -Hartree energ DENC   =      -487.42678455
  -exchange      EXHF   =         0.00000000
  -V(xc)+E(xc)   XCENC  =        38.85581980
  PAW double counting   =       691.44417283     -693.72949215
  entropy T*S    EENTRO =         0.00000000
  eigenvalues    EBANDS =      -135.39840403
  atomic energy  EATOM  =       579.39041991
  ---------------------------------------------------
  free energy    TOTEN  =       -12.62806246 eV

  energy without entropy =      -12.62806246  energy(sigma->0) =      -12.62806246


--------------------------------------------------------------------------------------------------------




----------------------------------------- Iteration    2(   4)  ---------------------------------------


    POTLOK:  cpu time    0.52: real time    0.52
    SETDIJ:  cpu time    0.00: real time    0.01
     EDDAV:  cpu time    0.35: real time    0.35
       DOS:  cpu time    0.00: real time    0.00
    CHARGE:  cpu time    0.08: real time    0.08
    MIXING:  cpu time    0.02: real time    0.02
    --------------------------------------------
      LOOP:  cpu time    0.98: real time    0.98

 eigenvalue-minimisations  :    26
 total energy-change (2. order) : 0.2968283E-01  (-0.2896923E-01)
 number of electron      10.0000022 magnetization 
 augmentation part        0.5447374 magnetization 

 Broyden mixing:
  rms(total) = 0.60795E-01    rms(broyden)= 0.60758E-01
  rms(prec ) = 0.70738E-01
  weight for this iteration     100.00

 eigenvalues of (default mixing * dielectric matrix)
  average eigenvalue GAMMA=   1.3148
  2.2951  1.1285  0.5208

 Free energy of the ion-electron system (eV)
  ---------------------------------------------------
  alpha Z        PSCENC =         0.85343271
  Ewald energy   TEWEN  =        -6.61722699
  -Hartree energ DENC   =      -487.17182929
  -exchange      EXHF   =         0.00000000
  -V(xc)+E(xc)   XCENC  =        38.83260358
  PAW double counting   =       639.61903364     -641.87361013
  entropy T*S    EENTRO =         0.00000000
  eigenvalues    EBANDS =      -135.63120306
  atomic energy  EATOM  =       579.39041991
  ---------------------------------------------------
  free energy    TOTEN  =       -12.59837963 eV

  energy without entropy =      -12.59837963  energy(sigma->0) =      -12.59837963


--------------------------------------------------------------------------------------------------------




----------------------------------------- Iteration    2(   5)  ---------------------------------------


    POTLOK:  cpu time    0.53: real time    0.54
    SETDIJ:  cpu time    0.00: real time    0.00
     EDDAV:  cpu time    0.28: real time    0.28
       DOS:  cpu time    0.00: real time    0.00
    CHARGE:  cpu time    0.07: real time    0.07
    MIXING:  cpu time    0.02: real time    0.02
    --------------------------------------------
      LOOP:  cpu time    0.91: real time    0.92

 eigenvalue-minimisations  :    20
 total energy-change (2. order) :-0.3993549E-02  (-0.1511831E-02)
 number of electron      10.0000022 magnetization 
 augmentation part        0.5486074 magnetization 

 Broyden mixing:
  rms(total) = 0.20790E-01    rms(broyden)= 0.20788E-01
  rms(prec ) = 0.28151E-01
  weight for this iteration     100.00

 eigenvalues of (default mixing * dielectric matrix)
  average eigenvalue GAMMA=   1.4538
  2.5248  1.7181  0.5099  1.0625

 Free energy of the ion-electron system (eV)
  ---------------------------------------------------
  alpha Z        PSCENC =         0.85343271
  Ewald energy   TEWEN  =        -6.61722699
  -Hartree energ DENC   =      -486.70265598
  -exchange      EXHF   =         0.00000000
  -V(xc)+E(xc)   XCENC  =        38.80603573
  PAW double counting   =       603.70971351     -605.94171750
  entropy T*S    EENTRO =         0.00000000
  eigenvalues    EBANDS =      -136.10037458
  atomic energy  EATOM  =       579.39041991
  ---------------------------------------------------
  free energy    TOTEN  =       -12.60237318 eV

  energy without entropy =      -12.60237318  energy(sigma->0) =      -12.60237318


--------------------------------------------------------------------------------------------------------




----------------------------------------- Iteration    2(   6)  ---------------------------------------


    POTLOK:  cpu time    0.52: real time    0.52
    SETDIJ:  cpu time    0.00: real time    0.00
     EDDAV:  cpu time    0.26: real time    0.26
       DOS:  cpu time    0.00: real time    0.00
    CHARGE:  cpu time    0.07: real time    0.08
    MIXING:  cpu time    0.03: real time    0.03
    --------------------------------------------
      LOOP:  cpu time    0.89: real time    0.89

 eigenvalue-minimisations  :    18
 total energy-change (2. order) :-0.1353598E-02  (-0.1933798E-03)
 number of electron      10.0000022 magnetization 
 augmentation part        0.5478465 magnetization 

 Broyden mixing:
  rms(total) = 0.32785E-02    rms(broyden)= 0.32691E-02
  rms(prec ) = 0.93656E-02
  weight for this iteration     100.00

 eigenvalues of (default mixing * dielectric matrix)
  average eigenvalue GAMMA=   1.3810
  2.5633  1.7419  0.5092  1.1681  0.9223

 Free energy of the ion-electron system (eV)
  ---------------------------------------------------
  alpha Z        PSCENC =         0.85343271
  Ewald energy   TEWEN  =        -6.61722699
  -Hartree energ DENC   =      -487.00500631
  -exchange      EXHF   =         0.00000000
  -V(xc)+E(xc)   XCENC  =        38.81998978
  PAW double counting   =       591.01828128     -593.25136357
  entropy T*S    EENTRO =         0.00000000
  eigenvalues    EBANDS =      -135.81225359
  atomic energy  EATOM  =       579.39041991
  ---------------------------------------------------
  free energy    TOTEN  =       -12.60372678 eV

  energy without entropy =      -12.60372678  energy(sigma->0) =      -12.60372678


--------------------------------------------------------------------------------------------------------




----------------------------------------- Iteration    2(   7)  ---------------------------------------


    POTLOK:  cpu time    0.52: real time    0.52
    SETDIJ:  cpu time    0.01: real time    0.00
     EDDAV:  cpu time    0.28: real time    0.28
       DOS:  cpu time    0.00: real time    0.00
    CHARGE:  cpu time    0.07: real time    0.07
    MIXING:  cpu time    0.03: real time    0.03
    --------------------------------------------
      LOOP:  cpu time    0.91: real time    0.91

 eigenvalue-minimisations  :    20
 total energy-change (2. order) :-0.8197012E-03  (-0.2077752E-04)
 number of electron      10.0000022 magnetization 
 augmentation part        0.5474992 magnetization 

 Broyden mixing:
  rms(total) = 0.21622E-02    rms(broyden)= 0.21601E-02
  rms(prec ) = 0.63714E-02
  weight for this iteration     100.00

 eigenvalues of (default mixing * dielectric matrix)
  average eigenvalue GAMMA=   1.5604
  2.6509  2.4190  0.5097  1.7127  0.9535  1.1166

 Free energy of the ion-electron system (eV)
  ---------------------------------------------------
  alpha Z        PSCENC =         0.85343271
  Ewald energy   TEWEN  =        -6.61722699
  -Hartree energ DENC   =      -486.96801347
  -exchange      EXHF   =         0.00000000
  -V(xc)+E(xc)   XCENC  =        38.81612653
  PAW double counting   =       590.62946861     -592.86361783
  entropy T*S    EENTRO =         0.00000000
  eigenvalues    EBANDS =      -135.84513595
  atomic energy  EATOM  =       579.39041991
  ---------------------------------------------------
  free energy    TOTEN  =       -12.60454648 eV

  energy without entropy =      -12.60454648  energy(sigma->0) =      -12.60454648


--------------------------------------------------------------------------------------------------------




----------------------------------------- Iteration    2(   8)  ---------------------------------------


    POTLOK:  cpu time    0.54: real time    0.55
    SETDIJ:  cpu time    0.00: real time    0.00
     EDDAV:  cpu time    0.27: real time    0.27
       DOS:  cpu time    0.00: real time    0.00
    CHARGE:  cpu time    0.08: real time    0.08
    MIXING:  cpu time    0.03: real time    0.03
    --------------------------------------------
      LOOP:  cpu time    0.92: real time    0.93

 eigenvalue-minimisations  :    18
 total energy-change (2. order) :-0.1248825E-02  (-0.3158797E-04)
 number of electron      10.0000022 magnetization 
 augmentation part        0.5478343 magnetization 

 Broyden mixing:
  rms(total) = 0.18739E-02    rms(broyden)= 0.18732E-02
  rms(prec ) = 0.31423E-02
  weight for this iteration     100.00

 eigenvalues of (default mixing * dielectric matrix)
  average eigenvalue GAMMA=   1.7120
  3.6598  2.5034  0.5097  1.6610  1.6610  0.9627  1.0261

 Free energy of the ion-electron system (eV)
  ---------------------------------------------------
  alpha Z        PSCENC =         0.85343271
  Ewald energy   TEWEN  =        -6.61722699
  -Hartree energ DENC   =      -486.83382731
  -exchange      EXHF   =         0.00000000
  -V(xc)+E(xc)   XCENC  =        38.80658292
  PAW double counting   =       591.31624895     -593.55127429
  entropy T*S    EENTRO =         0.00000000
  eigenvalues    EBANDS =      -135.97015121
  atomic energy  EATOM  =       579.39041991
  ---------------------------------------------------
  free energy    TOTEN  =       -12.60579531 eV

  energy without entropy =      -12.60579530  energy(sigma->0) =      -12.60579531


--------------------------------------------------------------------------------------------------------




----------------------------------------- Iteration    2(   9)  ---------------------------------------


    POTLOK:  cpu time    0.55: real time    0.56
    SETDIJ:  cpu time    0.00: real time    0.00
     EDDAV:  cpu time    0.26: real time    0.26
       DOS:  cpu time    0.00: real time    0.00
    CHARGE:  cpu time    0.07: real time    0.07
    MIXING:  cpu time    0.03: real time    0.03
    --------------------------------------------
      LOOP:  cpu time    0.92: real time    0.92

 eigenvalue-minimisations  :    18
 total energy-change (2. order) :-0.3268990E-03  (-0.8355540E-05)
 number of electron      10.0000022 magnetization 
 augmentation part        0.5475122 magnetization 

 Broyden mixing:
  rms(total) = 0.75727E-03    rms(broyden)= 0.75549E-03
  rms(prec ) = 0.12752E-02
  weight for this iteration     100.00

 eigenvalues of (default mixing * dielectric matrix)
  average eigenvalue GAMMA=   1.8673
  4.8017  2.6630  2.2220  0.5097  1.6383  1.1743  0.9295  1.0003

 Free energy of the ion-electron system (eV)
  ---------------------------------------------------
  alpha Z        PSCENC =         0.85343271
  Ewald energy   TEWEN  =        -6.61722699
  -Hartree energ DENC   =      -486.87149695
  -exchange      EXHF   =         0.00000000
  -V(xc)+E(xc)   XCENC  =        38.80928027
  PAW double counting   =       591.45307221     -593.68859881
  entropy T*S    EENTRO =         0.00000000
  eigenvalues    EBANDS =      -135.93500456
  atomic energy  EATOM  =       579.39041991
  ---------------------------------------------------
  free energy    TOTEN  =       -12.60612220 eV

  energy without entropy =      -12.60612220  energy(sigma->0) =      -12.60612220


--------------------------------------------------------------------------------------------------------




----------------------------------------- Iteration    2(  10)  ---------------------------------------


    POTLOK:  cpu time    0.59: real time    0.59
    SETDIJ:  cpu time    0.01: real time    0.01
     EDDAV:  cpu time    0.25: real time    0.26
       DOS:  cpu time    0.00: real time    0.00
    CHARGE:  cpu time    0.07: real time    0.07
    MIXING:  cpu time    0.03: real time    0.03
    --------------------------------------------
      LOOP:  cpu time    0.95: real time    0.96

 eigenvalue-minimisations  :    18
 total energy-change (2. order) :-0.1441000E-03  (-0.1656072E-05)
 number of electron      10.0000022 magnetization 
 augmentation part        0.5475606 magnetization 

 Broyden mixing:
  rms(total) = 0.38474E-03    rms(broyden)= 0.38467E-03
  rms(prec ) = 0.57434E-03
  weight for this iteration     100.00

 eigenvalues of (default mixing * dielectric matrix)
  average eigenvalue GAMMA=   1.9683
  5.5137  2.9193  2.3921  0.5097  1.7196  1.7196  1.0306  0.9549  0.9549

 Free energy of the ion-electron system (eV)
  ---------------------------------------------------
  alpha Z        PSCENC =         0.85343271
  Ewald energy   TEWEN  =        -6.61722699
  -Hartree energ DENC   =      -486.85095481
  -exchange      EXHF   =         0.00000000
  -V(xc)+E(xc)   XCENC  =        38.80844244
  PAW double counting   =       591.59391584     -593.82847783
  entropy T*S    EENTRO =         0.00000000
  eigenvalues    EBANDS =      -135.95581758
  atomic energy  EATOM  =       579.39041991
  ---------------------------------------------------
  free energy    TOTEN  =       -12.60626630 eV

  energy without entropy =      -12.60626630  energy(sigma->0) =      -12.60626630


--------------------------------------------------------------------------------------------------------




----------------------------------------- Iteration    2(  11)  ---------------------------------------


    POTLOK:  cpu time    0.55: real time    0.56
    SETDIJ:  cpu time    0.00: real time    0.00
     EDDAV:  cpu time    0.27: real time    0.27
       DOS:  cpu time    0.00: real time    0.00
    --------------------------------------------
      LOOP:  cpu time    0.83: real time    0.83

 eigenvalue-minimisations  :    19
 total energy-change (2. order) :-0.3567403E-04  (-0.4455584E-06)
 number of electron      10.0000022 magnetization 
 augmentation part        0.5475606 magnetization 

 Free energy of the ion-electron system (eV)
  ---------------------------------------------------
  alpha Z        PSCENC =         0.85343271
  Ewald energy   TEWEN  =        -6.61722699
  -Hartree energ DENC   =      -486.84847838
  -exchange      EXHF   =         0.00000000
  -V(xc)+E(xc)   XCENC  =        38.80809802
  PAW double counting   =       591.46182355     -593.69605672
  entropy T*S    EENTRO =         0.00000000
  eigenvalues    EBANDS =      -135.95831407
  atomic energy  EATOM  =       579.39041991
  ---------------------------------------------------
  free energy    TOTEN  =       -12.60630198 eV

  energy without entropy =      -12.60630198  energy(sigma->0) =      -12.60630198


--------------------------------------------------------------------------------------------------------




 average (electrostatic) potential at core
  the test charge radii are     0.7215  0.6991
  (the norm of the test charge is              1.0000)
       1 -82.4329       2 -62.5895
 
 
 
 E-fermi :  -8.1687     XC(G=0):  -1.2484     alpha+bet : -0.3420


 k-point     1 :       0.0000    0.0000    0.0000
  band No.  band energies     occupation 
      1     -25.6244      2.00000
      2     -14.0429      2.00000
      3      -9.5980      2.00000
      4      -9.5980      2.00000
      5      -9.1159      2.00000
      6      -3.8526      0.00000
      7      -3.8526      0.00000
      8      -0.3046      0.00000
      9       1.4207      0.00000


--------------------------------------------------------------------------------------------------------


 soft charge-density along one line, spin component           1
         0         1         2         3         4         5         6         7         8         9
x     9.4524    0.0000    8.8030    0.0000    7.1950    0.0000    5.2967    0.0000    3.5967    0.0000
x     2.2836    0.0000    1.3582    0.0000    0.7480    0.0000    0.3681    0.0000    0.1456    0.0000
x     0.0250    0.0000   -0.0325    0.0000   -0.0528    0.0000   -0.0524    0.0000   -0.0423    0.0000
x    -0.0301    0.0000   -0.0198    0.0000   -0.0124    0.0000   -0.0076    0.0000   -0.0049    0.0000
x     0.0000    0.0000
y     9.4524    0.0000    8.8030    0.0000    7.1950    0.0000    5.2967    0.0000    3.5967    0.0000
y     2.2836    0.0000    1.3582    0.0000    0.7480    0.0000    0.3681    0.0000    0.1456    0.0000
y     0.0250    0.0000   -0.0325    0.0000   -0.0528    0.0000   -0.0524    0.0000   -0.0423    0.0000
y    -0.0301    0.0000   -0.0198    0.0000   -0.0124    0.0000   -0.0076    0.0000   -0.0049    0.0000
y     0.0000    0.0000
z     9.4524    0.0000    7.1037   -2.3444    3.2370   -1.3269    1.6549    0.9734    1.7277    1.7168
z     1.5256    1.0944    0.7663    0.4888    0.1432    0.3688   -0.0261    0.3923    0.0331    0.2730
z     0.0497    0.0688   -0.0169   -0.0583   -0.0739   -0.0672   -0.0690   -0.0281   -0.0312   -0.0061
z    -0.0036   -0.0074    0.0038   -0.0126    0.0018   -0.0119   -0.0004   -0.0073   -0.0008   -0.0029
z     0.0000    0.0000
 total charge-density along one line
x    10.0000    0.0000    9.3438    0.0000    7.7157    0.0000    5.7854    0.0000    4.0436    0.0000
x     2.6813    0.0000    1.7023    0.0000    1.0370    0.0000    0.6033    0.0000    0.3303    0.0000
x     0.1646    0.0000    0.0685    0.0000    0.0165    0.0000   -0.0077    0.0000   -0.0158    0.0000
x    -0.0162    0.0000   -0.0140    0.0000   -0.0110    0.0000   -0.0083    0.0000   -0.0062    0.0000
x    -0.0011    0.0000   -0.0005    0.0000    0.0000    0.0000    0.0003    0.0000    0.0004    0.0000
x     0.0004    0.0000    0.0002    0.0000    0.0001    0.0000   -0.0001    0.0000   -0.0001    0.0000
x    -0.0001    0.0000   -0.0001    0.0000   -0.0001    0.0000    0.0000    0.0000    0.0001    0.0000
x     0.0001    0.0000    0.0001    0.0000    0.0000    0.0000    0.0000    0.0000    0.0000    0.0000
x     0.0000    0.0000
y    10.0000    0.0000    9.3438    0.0000    7.7157    0.0000    5.7854    0.0000    4.0436    0.0000
y     2.6813    0.0000    1.7023    0.0000    1.0370    0.0000    0.6033    0.0000    0.3303    0.0000
y     0.1646    0.0000    0.0685    0.0000    0.0165    0.0000   -0.0077    0.0000   -0.0158    0.0000
y    -0.0162    0.0000   -0.0140    0.0000   -0.0110    0.0000   -0.0083    0.0000   -0.0062    0.0000
y    -0.0011    0.0000   -0.0005    0.0000    0.0000    0.0000    0.0003    0.0000    0.0004    0.0000
y     0.0004    0.0000    0.0002    0.0000    0.0001    0.0000   -0.0001    0.0000   -0.0001    0.0000
y    -0.0001    0.0000   -0.0001    0.0000   -0.0001    0.0000    0.0000    0.0000    0.0001    0.0000
y     0.0001    0.0000    0.0001    0.0000    0.0000    0.0000    0.0000    0.0000    0.0000    0.0000
y     0.0000    0.0000
z    10.0000    0.0000    7.6443   -2.2731    3.7539   -1.1974    2.1258    1.1430    2.1302    1.9121
z     1.8476    1.3084    1.0121    0.7149    0.3284    0.5931    0.1132    0.5931    0.1316    0.4321
z     0.1064    0.1821    0.0020    0.0198   -0.0786   -0.0099   -0.0793    0.0156   -0.0356    0.0230
z    -0.0015    0.0051    0.0071   -0.0132    0.0027   -0.0179   -0.0013   -0.0123   -0.0012   -0.0052
z     0.0007   -0.0005    0.0009   -0.0001    0.0003    0.0001   -0.0003    0.0004   -0.0004    0.0004
z    -0.0003    0.0002   -0.0002    0.0000   -0.0001   -0.0001    0.0000   -0.0001    0.0002    0.0000
z     0.0002    0.0000    0.0001    0.0000    0.0001    0.0001    0.0000    0.0001    0.0000    0.0000
z    -0.0001    0.0000   -0.0001    0.0000    0.0000    0.0000    0.0000    0.0000    0.0000    0.0000
z     0.0000    0.0000
 
 pseudopotential strength for first ion, spin component:           1
 14.076 -17.279   0.000  -0.078   0.000   0.000   0.098   0.000
-17.279  21.244   0.000   0.100   0.000   0.000  -0.126   0.000
  0.000   0.000 -10.885   0.000   0.000  13.562   0.000   0.000
 -0.078   0.100   0.000 -10.940   0.000   0.000  13.634   0.000
  0.000   0.000   0.000   0.000 -10.885   0.000   0.000  13.562
  0.000   0.000  13.562   0.000   0.000 -16.842   0.000   0.000
  0.098  -0.126   0.000  13.634   0.000   0.000 -16.937   0.000
  0.000   0.000   0.000   0.000  13.562   0.000   0.000 -16.842
 total augmentation occupancy for first ion, spin component:           1
  2.536   0.304   0.000   0.309   0.000   0.000   0.139   0.000
  0.304   0.106   0.000   0.347   0.000   0.000   0.083   0.000
  0.000   0.000   1.760   0.000   0.000   0.145   0.000   0.000
  0.309   0.347   0.000   2.253   0.000   0.000   0.358   0.000
  0.000   0.000   0.000   0.000   1.760   0.000   0.000   0.145
  0.000   0.000   0.145   0.000   0.000   0.012   0.000   0.000
  0.139   0.083   0.000   0.358   0.000   0.000   0.074   0.000
  0.000   0.000   0.000   0.000   0.145   0.000   0.000   0.012


------------------------ aborting loop because EDIFF is reached ----------------------------------------


    CHARGE:  cpu time    0.07: real time    0.07
    FORLOC:  cpu time    0.04: real time    0.04
    FORNL :  cpu time    0.03: real time    0.03
    STRESS:  cpu time    0.19: real time    0.19
    FORCOR:  cpu time    0.62: real time    0.63
    FORHAR:  cpu time    0.18: real time    0.18
    MIXING:  cpu time    0.03: real time    0.03
    OFIELD:  cpu time    0.00: real time    0.00

  FORCE on cell =-STRESS in cart. coord.  units (eV):
  Direction    XX          YY          ZZ          XY          YZ          ZX
  --------------------------------------------------------------------------------------
  Alpha Z     0.85343     0.85343     0.85343
  Ewald     -86.41246   -86.41246   166.20765     0.00000     0.00000     0.00000
  Hartree   123.19511   123.19511   240.46645     0.00000     0.00000     0.00000
  E(xc)     -42.32225   -42.32225   -41.31810     0.00000     0.00000     0.00000
  Local    -168.77887  -168.77887  -532.96636     0.00000     0.00000     0.00000
  n-local   -15.60926   -15.60926   -22.61280     0.00000     0.00000     0.00000
  augment     5.98831     5.98831     5.85189     0.00000     0.00000     0.00000
  Kinetic   182.30631   182.30631   165.55705     0.00000     0.00000     0.00000
  Fock        0.00000     0.00000     0.00000     0.00000     0.00000     0.00000
  -------------------------------------------------------------------------------------
  Total      -0.77969    -0.77969   -17.96077     0.00000     0.00000     0.00000
  in kB      -2.43983    -2.43983   -56.20380     0.00000     0.00000     0.00000
  external pressure =      -20.36 kB  Pullay stress =        0.00 kB


 VOLUME and BASIS-vectors are now :
 -----------------------------------------------------------------------------
  energy-cutoff  :      400.00
  volume of cell :      512.00
      direct lattice vectors                 reciprocal lattice vectors
     8.000000000  0.000000000  0.000000000     0.125000000  0.000000000  0.000000000
     0.000000000  8.000000000  0.000000000     0.000000000  0.125000000  0.000000000
     0.000000000  0.000000000  8.000000000     0.000000000  0.000000000  0.125000000

  length of vectors
     8.000000000  8.000000000  8.000000000     0.125000000  0.125000000  0.125000000


 FORCES acting on ions
    electron-ion (+dipol)            ewald-force                    non-local-force                 convergence-correction
 -----------------------------------------------------------------------------------------------
   -.839E-05 0.104E-13 0.140E+03   0.116E-16 -.134E-15 -.170E+03   0.000E+00 -.646E-26 0.426E+02   -.110E-13 0.667E-13 -.359E-02
   -.716E-05 0.105E-13 -.157E+03   -.896E-17 0.100E-15 0.170E+03   0.000E+00 0.000E+00 -.253E+02   -.220E-13 0.212E-13 -.426E-03
 -----------------------------------------------------------------------------------------------
   -.155E-04 0.209E-13 -.172E+02   0.264E-17 -.340E-16 0.000E+00   0.000E+00 -.646E-26 0.172E+02   -.331E-13 0.879E-13 -.402E-02
 
 
 POSITION                                       TOTAL-FORCE (eV/Angst)
 -----------------------------------------------------------------------------------
      0.00000      0.00000     -0.14296         0.000000      0.000000     12.282615
      0.00000      0.00000      1.26296         0.000000      0.000000    -12.282615
 -----------------------------------------------------------------------------------
    total drift:                               -0.000016      0.000000      0.001425


--------------------------------------------------------------------------------------------------------



  FREE ENERGIE OF THE ION-ELECTRON SYSTEM (eV)
  ---------------------------------------------------
  free  energy   TOTEN  =       -12.60630198 eV

  energy  without entropy=      -12.60630198  energy(sigma->0) =      -12.60630198
 
 d Force =-0.1332310E+01[-0.351E+01, 0.847E+00]  d Energy =-0.2159347E+01 0.827E+00
 d Force = 0.6328333E+02[ 0.487E+02, 0.778E+02]  d Ewald  = 0.6165622E+02 0.163E+01


--------------------------------------------------------------------------------------------------------


    POTLOK:  cpu time    0.57: real time    0.57


--------------------------------------------------------------------------------------------------------


 Steepest descent step on ions:
 trial-energy change:    2.159347  1 .order    1.332310   -0.847335    3.511956
  (g-gl).g = 0.847E+00      g.g   = 0.847E+00  gl.gl    = 0.000E+00
 g(Force)  = 0.847E+00   g(Stress)= 0.000E+00 ortho     = 0.000E+00
 gamma     =   0.00000
 trial     =   1.00000
 opt step  =   0.19437  (harmonic =   0.19437) maximal distance =0.02778866
 next E    =   -14.847999   (d E  =  -0.08235)


--------------------------------------------------------------------------------------------------------


    WAVPRE:  cpu time    0.19: real time    0.19
    FEWALD:  cpu time    0.00: real time    0.00
    ORTHCH:  cpu time    0.01: real time    0.01
     LOOP+:  cpu time   12.13: real time   12.20


----------------------------------------- Iteration    3(   1)  ---------------------------------------


    POTLOK:  cpu time    0.60: real time    0.61
    SETDIJ:  cpu time    0.00: real time    0.00
     EDDAV:  cpu time    0.27: real time    0.27
       DOS:  cpu time    0.00: real time    0.00
    CHARGE:  cpu time    0.07: real time    0.07
    MIXING:  cpu time    0.02: real time    0.02
    --------------------------------------------
      LOOP:  cpu time    0.98: real time    0.98

 eigenvalue-minimisations  :    19
 total energy-change (2. order) :-0.2087110E+01  (-0.1236759E+02)
 number of electron      10.0000042 magnetization 
 augmentation part        0.6062055 magnetization 

 Broyden mixing:
  rms(total) = 0.44801E+00    rms(broyden)= 0.44730E+00
  rms(prec ) = 0.52226E+00
  weight for this iteration     100.00

 Free energy of the ion-electron system (eV)
  ---------------------------------------------------
  alpha Z        PSCENC =         0.85343271
  Ewald energy   TEWEN  =        40.64245740
  -Hartree energ DENC   =      -517.84941371
  -exchange      EXHF   =         0.00000000
  -V(xc)+E(xc)   XCENC  =        39.62327831
  PAW double counting   =       591.40622877     -593.64062076
  entropy T*S    EENTRO =         0.00000000
  eigenvalues    EBANDS =      -155.11915865
  atomic energy  EATOM  =       579.39041991
  ---------------------------------------------------
  free energy    TOTEN  =       -14.69337602 eV

  energy without entropy =      -14.69337602  energy(sigma->0) =      -14.69337602


--------------------------------------------------------------------------------------------------------




----------------------------------------- Iteration    3(   2)  ---------------------------------------


    POTLOK:  cpu time    0.54: real time    0.55
    SETDIJ:  cpu time    0.00: real time    0.00
     EDDAV:  cpu time    0.26: real time    0.26
       DOS:  cpu time    0.00: real time    0.00
    CHARGE:  cpu time    0.06: real time    0.06
    MIXING:  cpu time    0.02: real time    0.02
    --------------------------------------------
      LOOP:  cpu time    0.88: real time    0.89

 eigenvalue-minimisations  :    18
 total energy-change (2. order) :-0.1517097E+00  (-0.3741063E+00)
 number of electron      10.0000047 magnetization 
 augmentation part        0.6600072 magnetization 

 Broyden mixing:
  rms(total) = 0.22698E+00    rms(broyden)= 0.22691E+00
  rms(prec ) = 0.29782E+00
  weight for this iteration     100.00

 eigenvalues of (default mixing * dielectric matrix)
  average eigenvalue GAMMA=   0.8831
  0.8831

 Free energy of the ion-electron system (eV)
  ---------------------------------------------------
  alpha Z        PSCENC =         0.85343271
  Ewald energy   TEWEN  =        40.64245740
  -Hartree energ DENC   =      -519.48851474
  -exchange      EXHF   =         0.00000000
  -V(xc)+E(xc)   XCENC  =        39.75699976
  PAW double counting   =       703.61799558     -705.87825822
  entropy T*S    EENTRO =         0.00000000
  eigenvalues    EBANDS =      -153.73961807
  atomic energy  EATOM  =       579.39041991
  ---------------------------------------------------
  free energy    TOTEN  =       -14.84508567 eV

  energy without entropy =      -14.84508567  energy(sigma->0) =      -14.84508567


--------------------------------------------------------------------------------------------------------




----------------------------------------- Iteration    3(   3)  ---------------------------------------


    POTLOK:  cpu time    0.54: real time    0.54
    SETDIJ:  cpu time    0.01: real time    0.00
     EDDAV:  cpu time    0.36: real time    0.36
       DOS:  cpu time    0.00: real time    0.00
    CHARGE:  cpu time    0.07: real time    0.07
    MIXING:  cpu time    0.02: real time    0.02
    --------------------------------------------
      LOOP:  cpu time    1.00: real time    1.03

 eigenvalue-minimisations  :    28
 total energy-change (2. order) : 0.8016672E-01  (-0.2956775E-01)
 number of electron      10.0000044 magnetization 
 augmentation part        0.6385490 magnetization 

 Broyden mixing:
  rms(total) = 0.10660E+00    rms(broyden)= 0.10655E+00
  rms(prec ) = 0.14068E+00
  weight for this iteration     100.00

 eigenvalues of (default mixing * dielectric matrix)
  average eigenvalue GAMMA=   1.2287
  0.7995  1.6579

 Free energy of the ion-electron system (eV)
  ---------------------------------------------------
  alpha Z        PSCENC =         0.85343271
  Ewald energy   TEWEN  =        40.64245740
  -Hartree energ DENC   =      -523.71011208
  -exchange      EXHF   =         0.00000000
  -V(xc)+E(xc)   XCENC  =        40.00071825
  PAW double counting   =       735.94699981     -738.29531743
  entropy T*S    EENTRO =         0.00000000
  eigenvalues    EBANDS =      -149.59351751
  atomic energy  EATOM  =       579.39041991
  ---------------------------------------------------
  free energy    TOTEN  =       -14.76491895 eV

  energy without entropy =      -14.76491895  energy(sigma->0) =      -14.76491895


--------------------------------------------------------------------------------------------------------




----------------------------------------- Iteration    3(   4)  ---------------------------------------


    POTLOK:  cpu time    0.53: real time    0.54
    SETDIJ:  cpu time    0.00: real time    0.00
     EDDAV:  cpu time    0.35: real time    0.35
       DOS:  cpu time    0.00: real time    0.00
    CHARGE:  cpu time    0.07: real time    0.07
    MIXING:  cpu time    0.02: real time    0.02
    --------------------------------------------
      LOOP:  cpu time    0.98: real time    0.99

 eigenvalue-minimisations  :    27
 total energy-change (2. order) : 0.2379217E-01  (-0.1159999E-01)
 number of electron      10.0000044 magnetization 
 augmentation part        0.6355498 magnetization 

 Broyden mixing:
  rms(total) = 0.28302E-01    rms(broyden)= 0.28258E-01
  rms(prec ) = 0.36530E-01
  weight for this iteration     100.00

 eigenvalues of (default mixing * dielectric matrix)
  average eigenvalue GAMMA=   1.2259
  1.9294  0.9169  0.8314

 Free energy of the ion-electron system (eV)
  ---------------------------------------------------
  alpha Z        PSCENC =         0.85343271
  Ewald energy   TEWEN  =        40.64245740
  -Hartree energ DENC   =      -526.59417489
  -exchange      EXHF   =         0.00000000
  -V(xc)+E(xc)   XCENC  =        40.17585040
  PAW double counting   =       785.23789279     -787.64736965
  entropy T*S    EENTRO =         0.00000000
  eigenvalues    EBANDS =      -146.79963545
  atomic energy  EATOM  =       579.39041991
  ---------------------------------------------------
  free energy    TOTEN  =       -14.74112678 eV

  energy without entropy =      -14.74112678  energy(sigma->0) =      -14.74112678


--------------------------------------------------------------------------------------------------------




----------------------------------------- Iteration    3(   5)  ---------------------------------------


    POTLOK:  cpu time    0.54: real time    0.54
    SETDIJ:  cpu time    0.00: real time    0.00
     EDDAV:  cpu time    0.26: real time    0.26
       DOS:  cpu time    0.00: real time    0.00
    CHARGE:  cpu time    0.08: real time    0.08
    MIXING:  cpu time    0.03: real time    0.03
    --------------------------------------------
      LOOP:  cpu time    0.91: real time    0.93

 eigenvalue-minimisations  :    18
 total energy-change (2. order) :-0.4918806E-03  (-0.1027674E-03)
 number of electron      10.0000044 magnetization 
 augmentation part        0.6356348 magnetization 

 Broyden mixing:
  rms(total) = 0.16523E-01    rms(broyden)= 0.16519E-01
  rms(prec ) = 0.23190E-01
  weight for this iteration     100.00

 eigenvalues of (default mixing * dielectric matrix)
  average eigenvalue GAMMA=   1.4899
  2.5718  1.5776  0.7664  1.0435

 Free energy of the ion-electron system (eV)
  ---------------------------------------------------
  alpha Z        PSCENC =         0.85343271
  Ewald energy   TEWEN  =        40.64245740
  -Hartree energ DENC   =      -526.52306945
  -exchange      EXHF   =         0.00000000
  -V(xc)+E(xc)   XCENC  =        40.17393714
  PAW double counting   =       797.13915810     -799.55091402
  entropy T*S    EENTRO =         0.00000000
  eigenvalues    EBANDS =      -146.86704045
  atomic energy  EATOM  =       579.39041991
  ---------------------------------------------------
  free energy    TOTEN  =       -14.74161866 eV

  energy without entropy =      -14.74161866  energy(sigma->0) =      -14.74161866


--------------------------------------------------------------------------------------------------------




----------------------------------------- Iteration    3(   6)  ---------------------------------------


    POTLOK:  cpu time    0.55: real time    0.55
    SETDIJ:  cpu time    0.01: real time    0.00
     EDDAV:  cpu time    0.27: real time    0.27
       DOS:  cpu time    0.00: real time    0.00
    CHARGE:  cpu time    0.07: real time    0.07
[...]
   -.407E-04 0.807E-14 -.292E+02   0.264E-17 -.340E-16 0.000E+00   -.129E-25 -.194E-25 0.293E+02   -.342E-13 0.877E-13 0.167E-02
 
 
 POSITION                                       TOTAL-FORCE (eV/Angst)
 -----------------------------------------------------------------------------------
      0.00000      0.00000     -0.02779         0.000000      0.000000      3.244029
      0.00000      0.00000      1.14779         0.000000      0.000000     -3.244029
 -----------------------------------------------------------------------------------
    total drift:                               -0.000041      0.000000      0.009411


--------------------------------------------------------------------------------------------------------



  FREE ENERGIE OF THE ION-ELECTRON SYSTEM (eV)
  ---------------------------------------------------
  free  energy   TOTEN  =       -14.74623242 eV

  energy  without entropy=      -14.74623242  energy(sigma->0) =      -14.74623242
 
 d Force = 0.1788295E+01[ 0.747E+00, 0.283E+01]  d Energy = 0.2139930E+01-0.352E+00
 d Force =-0.4803180E+02[-0.568E+02,-0.393E+02]  d Ewald  =-0.4725968E+02-0.772E+00


--------------------------------------------------------------------------------------------------------


    POTLOK:  cpu time    0.56: real time    0.56


--------------------------------------------------------------------------------------------------------




--------------------------------------------------------------------------------------------------------


    WAVPRE:  cpu time    0.18: real time    0.18
    FEWALD:  cpu time    0.00: real time    0.00
    ORTHCH:  cpu time    0.01: real time    0.01
     LOOP+:  cpu time   12.03: real time   12.14


----------------------------------------- Iteration    4(   1)  ---------------------------------------


    POTLOK:  cpu time    0.56: real time    0.56
    SETDIJ:  cpu time    0.00: real time    0.00
     EDDAV:  cpu time    0.29: real time    0.29
       DOS:  cpu time    0.00: real time    0.00
    CHARGE:  cpu time    0.08: real time    0.08
    MIXING:  cpu time    0.02: real time    0.03
    --------------------------------------------
      LOOP:  cpu time    0.96: real time    0.96

 eigenvalue-minimisations  :    18
 total energy-change (2. order) :-0.5589149E-01  (-0.2182750E+00)
 number of electron      10.0000086 magnetization 
 augmentation part        0.6496556 magnetization 

 Broyden mixing:
  rms(total) = 0.67877E-01    rms(broyden)= 0.67788E-01
  rms(prec ) = 0.79435E-01
  weight for this iteration     100.00

 Free energy of the ion-electron system (eV)
  ---------------------------------------------------
  alpha Z        PSCENC =         0.85343271
  Ewald energy   TEWEN  =        47.98837881
  -Hartree energ DENC   =      -530.72300825
  -exchange      EXHF   =         0.00000000
  -V(xc)+E(xc)   XCENC  =        40.29268269
  PAW double counting   =       810.08123130     -812.49175307
  entropy T*S    EENTRO =         0.00000000
  eigenvalues    EBANDS =      -150.19345817
  atomic energy  EATOM  =       579.39041991
  ---------------------------------------------------
  free energy    TOTEN  =       -14.80207406 eV

  energy without entropy =      -14.80207406  energy(sigma->0) =      -14.80207406


--------------------------------------------------------------------------------------------------------




----------------------------------------- Iteration    4(   2)  ---------------------------------------


    POTLOK:  cpu time    0.63: real time    0.63
    SETDIJ:  cpu time    0.00: real time    0.01
     EDDAV:  cpu time    0.28: real time    0.28
       DOS:  cpu time    0.00: real time    0.00
    CHARGE:  cpu time    0.08: real time    0.08
    MIXING:  cpu time    0.02: real time    0.02
    --------------------------------------------
      LOOP:  cpu time    1.02: real time    1.02

 eigenvalue-minimisations  :    20
 total energy-change (2. order) : 0.9054381E-03  (-0.4636314E-02)
 number of electron      10.0000086 magnetization 
 augmentation part        0.6525622 magnetization 

 Broyden mixing:
  rms(total) = 0.29720E-01    rms(broyden)= 0.29705E-01
  rms(prec ) = 0.37615E-01
  weight for this iteration     100.00

 eigenvalues of (default mixing * dielectric matrix)
  average eigenvalue GAMMA=   1.3412
  1.3412

 Free energy of the ion-electron system (eV)
  ---------------------------------------------------
  alpha Z        PSCENC =         0.85343271
  Ewald energy   TEWEN  =        47.98837881
  -Hartree energ DENC   =      -531.46399142
  -exchange      EXHF   =         0.00000000
  -V(xc)+E(xc)   XCENC  =        40.33718872
  PAW double counting   =       831.70594552     -834.12987790
  entropy T*S    EENTRO =         0.00000000
  eigenvalues    EBANDS =      -149.48266497
  atomic energy  EATOM  =       579.39041991
  ---------------------------------------------------
  free energy    TOTEN  =       -14.80116862 eV

  energy without entropy =      -14.80116862  energy(sigma->0) =      -14.80116862


--------------------------------------------------------------------------------------------------------




----------------------------------------- Iteration    4(   3)  ---------------------------------------


    POTLOK:  cpu time    0.58: real time    0.58
    SETDIJ:  cpu time    0.00: real time    0.00
     EDDAV:  cpu time    0.28: real time    0.28
       DOS:  cpu time    0.00: real time    0.00
    CHARGE:  cpu time    0.07: real time    0.07
    MIXING:  cpu time    0.02: real time    0.02
    --------------------------------------------
      LOOP:  cpu time    0.96: real time    0.96

 eigenvalue-minimisations  :    20
 total energy-change (2. order) : 0.1737358E-02  (-0.5436415E-03)
 number of electron      10.0000086 magnetization 
 augmentation part        0.6512593 magnetization 

 Broyden mixing:
  rms(total) = 0.10484E-01    rms(broyden)= 0.10475E-01
  rms(prec ) = 0.11950E-01
  weight for this iteration     100.00

 eigenvalues of (default mixing * dielectric matrix)
  average eigenvalue GAMMA=   1.4466
  1.9405  0.9527

 Free energy of the ion-electron system (eV)
  ---------------------------------------------------
  alpha Z        PSCENC =         0.85343271
  Ewald energy   TEWEN  =        47.98837881
  -Hartree energ DENC   =      -532.17135205
  -exchange      EXHF   =         0.00000000
  -V(xc)+E(xc)   XCENC  =        40.37674049
  PAW double counting   =       845.85021339     -848.29406491
  entropy T*S    EENTRO =         0.00000000
  eigenvalues    EBANDS =      -148.79319961
  atomic energy  EATOM  =       579.39041991
  ---------------------------------------------------
  free energy    TOTEN  =       -14.79943126 eV

  energy without entropy =      -14.79943126  energy(sigma->0) =      -14.79943126


--------------------------------------------------------------------------------------------------------




----------------------------------------- Iteration    4(   4)  ---------------------------------------


    POTLOK:  cpu time    0.57: real time    0.57
    SETDIJ:  cpu time    0.00: real time    0.01
     EDDAV:  cpu time    0.28: real time    0.29
       DOS:  cpu time    0.00: real time    0.00
    --------------------------------------------
      LOOP:  cpu time    0.86: real time    0.86

 eigenvalue-minimisations  :    20
 total energy-change (2. order) : 0.2807960E-04  (-0.4027756E-04)
 number of electron      10.0000086 magnetization 
 augmentation part        0.6512593 magnetization 

 Free energy of the ion-electron system (eV)
  ---------------------------------------------------
  alpha Z        PSCENC =         0.85343271
  Ewald energy   TEWEN  =        47.98837881
  -Hartree energ DENC   =      -532.31397643
  -exchange      EXHF   =         0.00000000
  -V(xc)+E(xc)   XCENC  =        40.38471742
  PAW double counting   =       852.87851923     -855.32783173
  entropy T*S    EENTRO =         0.00000000
  eigenvalues    EBANDS =      -148.65306310
  atomic energy  EATOM  =       579.39041991
  ---------------------------------------------------
  free energy    TOTEN  =       -14.79940318 eV

  energy without entropy =      -14.79940318  energy(sigma->0) =      -14.79940318


--------------------------------------------------------------------------------------------------------




 average (electrostatic) potential at core
  the test charge radii are     0.7215  0.6991
  (the norm of the test charge is              1.0000)
       1 -83.2730       2 -61.4376
 
 
 
 E-fermi :  -7.8503     XC(G=0):  -1.2410     alpha+bet : -0.3420


 k-point     1 :       0.0000    0.0000    0.0000
  band No.  band energies     occupation 
      1     -28.9300      2.00000
      2     -13.7612      2.00000
      3     -11.4322      2.00000
      4     -11.4322      2.00000
      5      -8.7711      2.00000
      6      -1.8824      0.00000
      7      -1.8824      0.00000
      8      -0.3152      0.00000
      9       1.6868      0.00000


--------------------------------------------------------------------------------------------------------


 soft charge-density along one line, spin component           1
         0         1         2         3         4         5         6         7         8         9
x     9.3487    0.0000    8.7301    0.0000    7.1875    0.0000    5.3442    0.0000    3.6704    0.0000
x     2.3594    0.0000    1.4232    0.0000    0.7977    0.0000    0.4032    0.0000    0.1687    0.0000
x     0.0393    0.0000   -0.0243    0.0000   -0.0484    0.0000   -0.0501    0.0000   -0.0412    0.0000
x    -0.0297    0.0000   -0.0197    0.0000   -0.0123    0.0000   -0.0076    0.0000   -0.0049    0.0000
x     0.0000    0.0000
y     9.3487    0.0000    8.7301    0.0000    7.1875    0.0000    5.3442    0.0000    3.6704    0.0000
y     2.3594    0.0000    1.4232    0.0000    0.7977    0.0000    0.4032    0.0000    0.1687    0.0000
y     0.0393    0.0000   -0.0243    0.0000   -0.0484    0.0000   -0.0501    0.0000   -0.0412    0.0000
y    -0.0297    0.0000   -0.0197    0.0000   -0.0123    0.0000   -0.0076    0.0000   -0.0049    0.0000
y     0.0000    0.0000
z     9.3487    0.0000    7.2878   -2.7243    3.6886   -2.4194    1.8597   -0.5206    1.6538    0.4988
z     1.5183    0.3513    0.9237   -0.0087    0.2788   -0.0283   -0.0330    0.1631   -0.0383    0.2719
z     0.0361    0.2114    0.0444    0.0831   -0.0083   -0.0001   -0.0553   -0.0125   -0.0608    0.0068
z    -0.0387    0.0183   -0.0163    0.0142   -0.0054    0.0050   -0.0034   -0.0008   -0.0043   -0.0017
z     0.0000    0.0000
 total charge-density along one line
x    10.0000    0.0000    9.3720    0.0000    7.8071    0.0000    5.9280    0.0000    4.2063    0.0000
x     2.8385    0.0000    1.8400    0.0000    1.1504    0.0000    0.6927    0.0000    0.3989    0.0000
x     0.2159    0.0000    0.1061    0.0000    0.0436    0.0000    0.0115    0.0000   -0.0023    0.0000
x    -0.0072    0.0000   -0.0081    0.0000   -0.0075    0.0000   -0.0063    0.0000   -0.0052    0.0000
x    -0.0007    0.0000   -0.0005    0.0000   -0.0001    0.0000    0.0002    0.0000    0.0003    0.0000
x     0.0003    0.0000    0.0002    0.0000    0.0001    0.0000    0.0000    0.0000   -0.0001    0.0000
x    -0.0001    0.0000   -0.0001    0.0000   -0.0001    0.0000    0.0000    0.0000    0.0000    0.0000
x     0.0001    0.0000    0.0001    0.0000    0.0000    0.0000    0.0000    0.0000    0.0000    0.0000
x     0.0000    0.0000
y    10.0000    0.0000    9.3720    0.0000    7.8071    0.0000    5.9280    0.0000    4.2063    0.0000
y     2.8385    0.0000    1.8400    0.0000    1.1504    0.0000    0.6927    0.0000    0.3989    0.0000
y     0.2159    0.0000    0.1061    0.0000    0.0436    0.0000    0.0115    0.0000   -0.0023    0.0000
y    -0.0072    0.0000   -0.0081    0.0000   -0.0075    0.0000   -0.0063    0.0000   -0.0052    0.0000
y    -0.0007    0.0000   -0.0005    0.0000   -0.0001    0.0000    0.0002    0.0000    0.0003    0.0000
y     0.0003    0.0000    0.0002    0.0000    0.0001    0.0000    0.0000    0.0000   -0.0001    0.0000
y    -0.0001    0.0000   -0.0001    0.0000   -0.0001    0.0000    0.0000    0.0000    0.0000    0.0000
y     0.0001    0.0000    0.0001    0.0000    0.0000    0.0000    0.0000    0.0000    0.0000    0.0000
y     0.0000    0.0000
z    10.0000    0.0000    7.9216   -2.7349    4.2717   -2.4325    2.3833   -0.5129    2.1261    0.5323
z     1.9433    0.3974    1.2943    0.0356    0.5857    0.0095    0.2097    0.1968    0.1482    0.3014
z     0.1749    0.2320    0.1391    0.0911    0.0445   -0.0011   -0.0365   -0.0136   -0.0613    0.0117
z    -0.0446    0.0279   -0.0200    0.0224   -0.0070    0.0074   -0.0057   -0.0033   -0.0082   -0.0054
z    -0.0038   -0.0022   -0.0020   -0.0006   -0.0002    0.0000    0.0006    0.0000    0.0006    0.0000
z     0.0005    0.0003    0.0004    0.0004    0.0002    0.0002   -0.0001    0.0000   -0.0003    0.0000
z    -0.0003    0.0000   -0.0001    0.0000    0.0000   -0.0001    0.0000   -0.0001    0.0001    0.0000
z     0.0001    0.0000    0.0001    0.0000    0.0000    0.0000    0.0000    0.0000   -0.0001    0.0000
z    -0.0001    0.0000
 
 pseudopotential strength for first ion, spin component:           1
 14.191 -17.425   0.000  -0.145   0.000   0.000   0.183   0.000
-17.425  21.429   0.000   0.184   0.000   0.000  -0.233   0.000
  0.000   0.000 -10.999   0.000   0.000  13.713   0.000   0.000
 -0.145   0.184   0.000 -11.141   0.000   0.000  13.900   0.000
  0.000   0.000   0.000   0.000 -10.999   0.000   0.000  13.713
  0.000   0.000  13.713   0.000   0.000 -17.042   0.000   0.000
  0.183  -0.233   0.000  13.900   0.000   0.000 -17.288   0.000
  0.000   0.000   0.000   0.000  13.713   0.000   0.000 -17.042
 total augmentation occupancy for first ion, spin component:           1
  3.011   0.568   0.000   0.708   0.000   0.000   0.301   0.000
  0.568   0.209   0.000   0.542   0.000   0.000   0.150   0.000
  0.000   0.000   1.966   0.000   0.000   0.223   0.000   0.000
  0.708   0.542   0.000   2.880   0.000   0.000   0.525   0.000
  0.000   0.000   0.000   0.000   1.966   0.000   0.000   0.223
  0.000   0.000   0.223   0.000   0.000   0.025   0.000   0.000
  0.301   0.150   0.000   0.525   0.000   0.000   0.121   0.000
  0.000   0.000   0.000   0.000   0.223   0.000   0.000   0.025


------------------------ aborting loop because EDIFF is reached ----------------------------------------


    CHARGE:  cpu time    0.08: real time    0.08
    FORLOC:  cpu time    0.04: real time    0.04
    FORNL :  cpu time    0.03: real time    0.03
    STRESS:  cpu time    0.19: real time    0.19
    FORCOR:  cpu time    0.62: real time    0.62
    FORHAR:  cpu time    0.17: real time    0.18
    MIXING:  cpu time    0.02: real time    0.02
    OFIELD:  cpu time    0.00: real time    0.00

  FORCE on cell =-STRESS in cart. coord.  units (eV):
  Direction    XX          YY          ZZ          XY          YZ          ZX
  --------------------------------------------------------------------------------------
  Alpha Z     0.85343     0.85343     0.85343
  Ewald     -86.00982   -86.00982   220.00798     0.00000     0.00000     0.00000
  Hartree   140.23476   140.23476   251.73644     0.00000     0.00000     0.00000
  E(xc)     -43.96402   -43.96402   -42.85449     0.00000     0.00000     0.00000
  Local    -190.31544  -190.31544  -581.82861     0.00000     0.00000     0.00000
  n-local   -18.42478   -18.42478   -29.69064     0.00000     0.00000     0.00000
  augment     6.21643     6.21643     5.75557     0.00000     0.00000     0.00000
  Kinetic   190.59345   190.59345   174.86864     0.00000     0.00000     0.00000
  Fock        0.00000     0.00000     0.00000     0.00000     0.00000     0.00000
  -------------------------------------------------------------------------------------
  Total      -0.81600    -0.81600    -1.15168     0.00000     0.00000     0.00000
  in kB      -2.55346    -2.55346    -3.60391     0.00000     0.00000     0.00000
  external pressure =       -2.90 kB  Pullay stress =        0.00 kB


 VOLUME and BASIS-vectors are now :
 -----------------------------------------------------------------------------
  energy-cutoff  :      400.00
  volume of cell :      512.00
      direct lattice vectors                 reciprocal lattice vectors
     8.000000000  0.000000000  0.000000000     0.125000000  0.000000000  0.000000000
     0.000000000  8.000000000  0.000000000     0.000000000  0.125000000  0.000000000
     0.000000000  0.000000000  8.000000000     0.000000000  0.000000000  0.125000000

  length of vectors
     8.000000000  8.000000000  8.000000000     0.125000000  0.125000000  0.125000000


 FORCES acting on ions
    electron-ion (+dipol)            ewald-force                    non-local-force                 convergence-correction
 -----------------------------------------------------------------------------------------------
   -.133E-04 0.250E-14 0.201E+03   0.723E-16 -.595E-16 -.259E+03   0.646E-26 -.646E-26 0.593E+02   -.199E-13 0.700E-13 -.123E-01
   -.259E-04 0.629E-14 -.232E+03   -.696E-16 0.255E-16 0.259E+03   0.000E+00 0.000E+00 -.281E+02   -.135E-13 0.304E-13 -.345E-01
 -----------------------------------------------------------------------------------------------
   -.392E-04 0.879E-14 -.312E+02   0.264E-17 -.340E-16 0.000E+00   0.646E-26 -.646E-26 0.312E+02   -.334E-13 0.100E-12 -.469E-01
 
 
 POSITION                                       TOTAL-FORCE (eV/Angst)
 -----------------------------------------------------------------------------------
      0.00000      0.00000     -0.01327         0.000000      0.000000      0.309435
      0.00000      0.00000      1.13327         0.000000      0.000000     -0.309435
 -----------------------------------------------------------------------------------
    total drift:                               -0.000039      0.000000     -0.007471


--------------------------------------------------------------------------------------------------------



  FREE ENERGIE OF THE ION-ELECTRON SYSTEM (eV)
  ---------------------------------------------------
  free  energy   TOTEN  =       -14.79940318 eV

  energy  without entropy=      -14.79940318  energy(sigma->0) =      -14.79940318
 
 d Force = 0.5160472E-01[ 0.899E-02, 0.942E-01]  d Energy = 0.5317076E-01-0.157E-02
 d Force =-0.7348250E+01[-0.754E+01,-0.716E+01]  d Ewald  =-0.7345921E+01-0.233E-02


--------------------------------------------------------------------------------------------------------


    POTLOK:  cpu time    0.56: real time    0.56


--------------------------------------------------------------------------------------------------------




--------------------------------------------------------------------------------------------------------


  
 reached required accuracy - stopping structural energy minimisation
 writing wavefunctions
     LOOP+:  cpu time    5.53: real time    5.54
    4ORBIT:  cpu time    0.00: real time    0.00

 total amount of memory used by VASP on root node    64608. kBytes
========================================================================

   base      :      30000. kBytes
   nonl-proj :       1490. kBytes
   grid      :      31769. kBytes
   one-center:          6. kBytes
   wavefun   :       1343. kBytes
 
  
  
 General timing and accounting informations for this job:
 ========================================================
  
                  Total CPU time used (sec):       38.833
                            User time (sec):       37.382
                          System time (sec):        1.451
                         Elapsed time (sec):       38.907
  
                   Maximum memory used (kb):      118980.
                   Average memory used (kb):           0.
  
                          Minor page faults:       322519
                          Major page faults:            0
                 Voluntary context switches:           15
