<?xml version="1.0" encoding="ISO-8859-1"?>
<modeling>
 <generator>
  <i name="program" type="string">vasp </i>
  <i name="version" type="string">5.3.5  </i>
  <i name="subversion" type="string">31Mar14 (build Dec 17 2014 13:12:56) complex                          serial </i>
  <i name="platform" type="string">LinuxIFC_ath </i>
  <i name="date" type="string">2015 06 29 </i>
  <i name="time" type="string">15:25:58 </i>
 </generator>
 <incar>
  <i type="string" name="SYSTEM"> CO molecule in a box</i>
  <i type="string" name="PREC">normal</i>
  <i type="int" name="IBRION">     2</i>
  <i type="int" name="NSW">     5</i>
  <i type="int" name="ISMEAR">     0</i>
 </incar>
 <kpoints>
  <varray name="kpointlist" >
   <v>       0.00000000       0.00000000       0.00000000 </v>
  </varray>
  <varray name="weights" >
   <v>       1.00000000 </v>
  </varray>
 </kpoints>
 <parameters>
  <separator name="general" >
   <i type="string" name="SYSTEM">CO molecule in a box</i>
   <i type="logical" name="LCOMPAT"> F  </i>
  </separator>
  <separator name="electronic" >
   <i type="string" name="PREC">normal</i>
   <i name="ENMAX">    400.00000000</i>
   <i name="ENAUG">    644.87300000</i>
   <i name="EDIFF">      0.00010000</i>
   <i type="int" name="IALGO">    38</i>
   <i type="int" name="IWAVPR">    11</i>
   <i type="int" name="NBANDS">     9</i>
   <i name="NELECT">     10.00000000</i>
   <i type="int" name="TURBO">     0</i>
   <i type="int" name="IRESTART">     0</i>
   <i type="int" name="NREBOOT">     0</i>
   <i type="int" name="NMIN">     0</i>
   <i name="EREF">      0.00000000</i>
   <separator name="electronic smearing" >
    <i type="int" name="ISMEAR">     0</i>
    <i name="SIGMA">      0.20000000</i>
    <i name="KSPACING">      0.50000000</i>
    <i type="logical" name="KGAMMA"> T  </i>
   </separator>
   <separator name="electronic projectors" >
    <i type="logical" name="LREAL"> F  </i>
    <v name="ROPT">      0.00000000      0.00000000</v>
    <i type="int" name="LMAXPAW">  -100</i>
    <i type="int" name="LMAXMIX">     2</i>
    <i type="logical" name="NLSPLINE"> F  </i>
   </separator>
   <separator name="electronic startup" >
    <i type="int" name="ISTART">     1</i>
    <i type="int" name="ICHARG">     0</i>
    <i type="int" name="INIWAV">     1</i>
   </separator>
   <separator name="electronic spin" >
    <i type="int" name="ISPIN">     1</i>
    <i type="logical" name="LNONCOLLINEAR"> F  </i>
    <v name="MAGMOM">      1.00000000      1.00000000</v>
    <i name="NUPDOWN">     -1.00000000</i>
    <i type="logical" name="LSORBIT"> F  </i>
    <v name="SAXIS">      0.00000000      0.00000000      1.00000000</v>
    <i type="logical" name="LSPIRAL"> F  </i>
    <v name="QSPIRAL">      0.00000000      0.00000000      0.00000000</v>
    <i type="logical" name="LZEROZ"> F  </i>
   </separator>
   <separator name="electronic exchange-correlation" >
    <i type="logical" name="LASPH"> F  </i>
    <i type="logical" name="LMETAGGA"> F  </i>
   </separator>
   <separator name="electronic convergence" >
    <i type="int" name="NELM">    60</i>
    <i type="int" name="NELMDL">     0</i>
    <i type="int" name="NELMIN">     2</i>
    <i name="ENINI">    400.00000000</i>
    <separator name="electronic convergence detail" >
     <i type="logical" name="LDIAG"> T  </i>
     <i type="logical" name="LSUBROT"> F  </i>
     <i name="WEIMIN">      0.00100000</i>
     <i name="EBREAK">      0.00000278</i>
     <i name="DEPER">      0.30000000</i>
     <i type="int" name="NRMM">     4</i>
     <i name="TIME">      0.40000000</i>
    </separator>
   </separator>
   <separator name="electronic mixer" >
    <i name="AMIX">      0.40000000</i>
    <i name="BMIX">      1.00000000</i>
    <i name="AMIN">      0.10000000</i>
    <i name="AMIX_MAG">      1.60000000</i>
    <i name="BMIX_MAG">      1.00000000</i>
    <separator name="electronic mixer details" >
     <i type="int" name="IMIX">     4</i>
     <i type="int" name="MAXMIX">   -45</i>
     <i name="WC">    100.00000000</i>
     <i type="int" name="INIMIX">     1</i>
     <i type="int" name="MIXPRE">     1</i>
     <i type="int" name="MREMOVE">     5</i>
    </separator>
   </separator>
   <separator name="electronic dipolcorrection" >
    <i type="logical" name="LDIPOL"> F  </i>
    <i type="logical" name="LMONO"> F  </i>
    <i type="int" name="IDIPOL">     0</i>
    <i name="EPSILON">      1.00000000</i>
    <v name="DIPOL">   -100.00000000   -100.00000000   -100.00000000</v>
    <i name="EFIELD">      0.00000000</i>
   </separator>
  </separator>
  <separator name="grids" >
   <i type="int" name="NGX">    40</i>
   <i type="int" name="NGY">    40</i>
   <i type="int" name="NGZ">    40</i>
   <i type="int" name="NGXF">    80</i>
   <i type="int" name="NGYF">    80</i>
   <i type="int" name="NGZF">    80</i>
   <i type="logical" name="ADDGRID"> F  </i>
  </separator>
  <separator name="ionic" >
   <i type="int" name="NSW">     5</i>
   <i type="int" name="IBRION">     2</i>
   <i type="int" name="ISIF">     2</i>
   <i name="PSTRESS">      0.00000000</i>
   <i name="EDIFFG">      0.00100000</i>
   <i type="int" name="NFREE">     1</i>
   <i name="POTIM">      0.50000000</i>
   <i name="SMASS">     -3.00000000</i>
   <i name="SCALEE">      1.00000000</i>
  </separator>
  <separator name="ionic md" >
   <i name="TEBEG">      0.00010000</i>
   <i name="TEEND">      0.00010000</i>
   <i type="int" name="NBLOCK">     1</i>
   <i type="int" name="KBLOCK">     5</i>
   <i type="int" name="NPACO">   256</i>
   <i name="APACO">     16.00000000</i>
  </separator>
  <separator name="symmetry" >
   <i type="int" name="ISYM">     2</i>
   <i name="SYMPREC">      0.00001000</i>
  </separator>
  <separator name="dos" >
   <i type="logical" name="LORBIT"> F  </i>
   <v name="RWIGS">     -1.00000000     -1.00000000</v>
   <i type="int" name="NEDOS">   301</i>
   <i name="EMIN">     10.00000000</i>
   <i name="EMAX">    -10.00000000</i>
   <i name="EFERMI">      0.00000000</i>
  </separator>
  <separator name="writing" >
   <i type="int" name="NWRITE">     2</i>
   <i type="logical" name="LWAVE"> T  </i>
   <i type="logical" name="LCHARG"> T  </i>
   <i type="logical" name="LPARD"> F  </i>
   <i type="logical" name="LVTOT"> F  </i>
   <i type="logical" name="LVHAR"> F  </i>
   <i type="logical" name="LELF"> F  </i>
   <i type="logical" name="LOPTICS"> F  </i>
   <v name="STM">      0.00000000      0.00000000      0.00000000      0.00000000      0.00000000      0.00000000      0.00000000</v>
  </separator>
  <separator name="performance" >
   <i type="int" name="NPAR">     1</i>
   <i type="int" name="NSIM">     4</i>
   <i type="int" name="NBLK">    -1</i>
   <i type="logical" name="LPLANE"> T  </i>
   <i type="logical" name="LSCALAPACK"> F  </i>
   <i type="logical" name="LSCAAWARE"> F  </i>
   <i type="logical" name="LSCALU"> F  </i>
   <i type="logical" name="LASYNC"> F  </i>
   <i type="logical" name="LORBITALREAL"> F  </i>
  </separator>
  <separator name="miscellaneous" >
   <i type="int" name="IDIOT">     3</i>
   <i type="logical" name="LMUSIC"> F  </i>
   <v name="POMASS">     16.00000000     12.01100000</v>
   <v name="DARWINR">      0.00000000      0.00000000</v>
   <v name="DARWINV">      1.00000000      1.00000000</v>
   <i type="logical" name="LCORR"> T  </i>
  </separator>
  <i type="logical" name="GGA_COMPAT"> T  </i>
  <i type="logical" name="LBERRY"> F  </i>
  <i type="int" name="ICORELEVEL">     0</i>
  <i type="logical" name="LDAU"> F  </i>
  <i type="int" name="I_CONSTRAINED_M">     0</i>
  <separator name="electronic exchange-correlation" >
   <i type="string" name="GGA">--</i>
   <i type="int" name="VOSKOWN">     0</i>
   <i type="logical" name="LHFCALC"> F  </i>
   <i type="string" name="PRECFOCK"></i>
   <i type="logical" name="LSYMGRAD"> F  </i>
   <i type="logical" name="LHFONE"> F  </i>
   <i type="logical" name="LRHFCALC"> F  </i>
   <i type="logical" name="LTHOMAS"> F  </i>
   <i type="logical" name="LMODELHF"> F  </i>
   <i name="ENCUT4O">     -1.00000000</i>
   <i type="int" name="EXXOEP">     0</i>
   <i type="int" name="FOURORBIT">     0</i>
   <i name="AEXX">      0.00000000</i>
   <i name="HFALPHA">      0.00000000</i>
   <i name="MCALPHA">      0.00000000</i>
   <i name="ALDAX">      1.00000000</i>
   <i name="AGGAX">      1.00000000</i>
   <i name="ALDAC">      1.00000000</i>
   <i name="AGGAC">      1.00000000</i>
   <i type="int" name="NKREDX">     1</i>
   <i type="int" name="NKREDY">     1</i>
   <i type="int" name="NKREDZ">     1</i>
   <i type="logical" name="SHIFTRED"> F  </i>
   <i type="logical" name="ODDONLY"> F  </i>
   <i type="logical" name="EVENONLY"> F  </i>
   <i type="int" name="LMAXFOCK">     0</i>
   <i type="int" name="NMAXFOCKAE">     0</i>
   <i type="logical" name="LFOCKAEDFT"> F  </i>
   <i name="HFSCREEN">      0.00000000</i>
   <i name="HFSCREENC">      0.00000000</i>
   <i type="int" name="NBANDSGWLOW">     0</i>
  </separator>
  <separator name="vdW DFT" >
   <i type="logical" name="LUSE_VDW"> F  </i>
   <i name="Zab_VDW">     -0.84910000</i>
   <i name="PARAM1">      0.12340000</i>
   <i name="PARAM2">      1.00000000</i>
   <i name="PARAM3">      0.00000000</i>
  </separator>
  <separator name="model GW" >
   <i type="int" name="MODEL_GW">     0</i>
   <i name="MODEL_EPS0">    153.60000000</i>
   <i name="MODEL_ALPHA">      1.00000000</i>
  </separator>
  <separator name="linear response parameters" >
   <i type="logical" name="LEPSILON"> F  </i>
   <i type="logical" name="LRPA"> F  </i>
   <i type="logical" name="LNABLA"> F  </i>
   <i type="logical" name="LVEL"> F  </i>
   <i type="int" name="KINTER">     0</i>
   <i name="CSHIFT">      0.10000000</i>
   <i name="OMEGAMAX">     -1.00000000</i>
   <i name="DEG_THRESHOLD">      0.00200000</i>
  </separator>
  <separator name="orbital magnetization" >
   <i type="logical" name="NUCIND"> F  </i>
   <v name="MAGPOS">      0.00000000      0.00000000      0.00000000</v>
   <i type="logical" name="LNICSALL"> T  </i>
   <i type="logical" name="ORBITALMAG"> F  </i>
   <i type="logical" name="LMAGBLOCH"> F  </i>
   <i type="logical" name="LCHIMAG"> F  </i>
   <i type="logical" name="LGAUGE"> T  </i>
   <i type="int" name="MAGATOM">     0</i>
   <v name="MAGDIPOL">      0.00000000      0.00000000      0.00000000</v>
   <v name="AVECCONST">      0.00000000      0.00000000      0.00000000</v>
  </separator>
  <separator name="response functions" >
   <i type="logical" name="LADDER"> F  </i>
   <i type="logical" name="LFXC"> F  </i>
   <i type="logical" name="LHARTREE"> T  </i>
   <i type="int" name="IBSE">     0</i>
   <i type="logical" name="LTCTE"> F  </i>
   <i type="logical" name="LTETE"> F  </i>
   <i type="logical" name="LTRIPLET"> F  </i>
   <i type="logical" name="LFXCEPS"> F  </i>
   <i type="logical" name="LFXHEG"> F  </i>
   <i type="logical" name="L2ORDER"> F  </i>
   <i type="logical" name="LUSEW"> F  </i>
   <i name="ENCUTGW">     -2.00000000</i>
   <i name="ENCUTGWSOFT">     -2.00000000</i>
   <i name="ENCUTLF">     -1.00000000</i>
   <i type="int" name="LMAXMP2">    -1</i>
   <i name="SCISSOR">      0.00000000</i>
   <i type="int" name="NOMEGA">     0</i>
   <i type="int" name="NOMEGAR">     0</i>
   <i type="int" name="NBANDSGW">    -1</i>
   <i type="int" name="NBANDSO">    -1</i>
   <i type="int" name="NBANDSV">    -1</i>
   <i type="int" name="NELM">     1</i>
   <i type="int" name="DIM">     3</i>
   <i type="int" name="ANTIRES">     0</i>
   <i name="OMEGAMAX">    -30.00000000</i>
   <i name="OMEGAMIN">    -30.00000000</i>
   <i name="OMEGATL">   -200.00000000</i>
   <i type="int" name="OMEGAGRID">     0</i>
   <i name="CSHIFT">     -0.10000000</i>
   <i type="logical" name="SELFENERGY"> F  </i>
   <i type="logical" name="LSPECTRAL"> F  </i>
   <i type="logical" name="ODDONLYGW"> F  </i>
   <i type="logical" name="EVENONLYGW"> F  </i>
   <i type="int" name="NKREDLFX">     1</i>
   <i type="int" name="NKREDLFY">     1</i>
   <i type="int" name="NKREDLFZ">     1</i>
   <i type="int" name="MAXMEM">  1800</i>
   <i type="int" name="TELESCOPE">     0</i>
   <i type="int" name="TAUPAR">     1</i>
  </separator>
  <separator name="External order field" >
   <i name="OFIELD_KAPPA">      0.00000000</i>
   <v name="OFIELD_K">      0.00000000      0.00000000      0.00000000</v>
   <i name="OFIELD_Q6_NEAR">      0.00000000</i>
   <i name="OFIELD_Q6_FAR">      0.00000000</i>
   <i name="OFIELD_A">      0.00000000</i>
  </separator>
 </parameters>
 <atominfo>
  <atoms>       2 </atoms>
  <types>       2 </types>
  <array name="atoms" >
   <dimension dim="1">ion</dimension>
   <field type="string">element</field>
   <field type="int">atomtype</field>
   <set>
    <rc><c>O </c><c>   1</c></rc>
    <rc><c>C </c><c>   2</c></rc>
   </set>
  </array>
  <array name="atomtypes" >
   <dimension dim="1">type</dimension>
   <field type="int">atomspertype</field>
   <field type="string">element</field>
   <field>mass</field>
   <field>valence</field>
   <field type="string">pseudopotential</field>
   <set>
    <rc><c>   1</c><c>O </c><c>     16.00000000</c><c>      6.00000000</c><c>  PAW_PBE O 08Apr2002                   </c></rc>
    <rc><c>   1</c><c>C </c><c>     12.01100000</c><c>      4.00000000</c><c>  PAW_PBE C 08Apr2002                   </c></rc>
   </set>
  </array>
 </atominfo>
 <structure name="initialpos" >
  <crystal>
   <varray name="basis" >
    <v>       8.00000000       0.00000000       0.00000000 </v>
    <v>       0.00000000       8.00000000       0.00000000 </v>
    <v>       0.00000000       0.00000000       8.00000000 </v>
   </varray>
   <i name="volume">    512.00000000 </i>
   <varray name="rec_basis" >
    <v>       0.12500000       0.00000000       0.00000000 </v>
    <v>       0.00000000       0.12500000       0.00000000 </v>
    <v>       0.00000000       0.00000000       0.12500000 </v>
   </varray>
  </crystal>
  <varray name="positions" >
   <v>       0.00000000       0.00000000       0.00000000 </v>
   <v>       0.00000000       0.00000000       0.14000000 </v>
  </varray>
 </structure>
 <calculation>
  <scstep>
   <time name="dav">    0.29    0.29</time>
   <time name="total">    1.01    1.03</time>
   <energy>
    <i name="alphaZ">      0.85343271 </i>
    <i name="ewald">     55.03899630 </i>
    <i name="hartreedc">   -533.60365974 </i>
    <i name="XCdc">     40.43155300 </i>
    <i name="pawpsdc">    866.42766946 </i>
    <i name="pawaedc">   -868.92799141 </i>
    <i name="eentropy">      0.00000000 </i>
    <i name="bandstr">   -154.45203580 </i>
    <i name="atom">    579.39041991 </i>
    <i name="e_fr_energy">    -14.84161557 </i>
    <i name="e_wo_entrp">    -14.84161557 </i>
    <i name="e_0_energy">    -14.84161557 </i>
   </energy>
  </scstep>
  <scstep>
   <time name="dav">    0.26    0.26</time>
   <time name="total">    0.94    0.94</time>
   <energy>
    <i name="e_fr_energy">    -14.78652023 </i>
    <i name="e_wo_entrp">    -14.78652023 </i>
    <i name="e_0_energy">    -14.78652023 </i>
   </energy>
  </scstep>
  <scstep>
   <time name="dav">    0.36    0.36</time>
   <time name="total">    1.04    1.05</time>
   <energy>
    <i name="e_fr_energy">    -14.76582978 </i>
    <i name="e_wo_entrp">    -14.76582978 </i>
    <i name="e_0_energy">    -14.76582978 </i>
   </energy>
  </scstep>
  <scstep>
   <time name="dav">    0.26    0.27</time>
   <time name="total">    0.95    0.96</time>
   <energy>
    <i name="e_fr_energy">    -14.76559535 </i>
    <i name="e_wo_entrp">    -14.76559535 </i>
    <i name="e_0_energy">    -14.76559535 </i>
   </energy>
  </scstep>
  <scstep>
   <time name="dav">    0.27    0.27</time>
   <time name="total">    0.85    0.85</time>
   <energy>
    <i name="alphaZ">      0.85343271 </i>
    <i name="ewald">     55.03899630 </i>
    <i name="hartreedc">   -537.82562631 </i>
    <i name="XCdc">     40.59125509 </i>
    <i name="pawpsdc">    903.92885917 </i>
    <i name="pawaedc">   -906.42003068 </i>
    <i name="eentropy">      0.00000000 </i>
    <i name="bandstr">   -150.32295506 </i>
    <i name="atom">    579.39041991 </i>
    <i name="e_fr_energy">    -14.76564886 </i>
    <i name="e_wo_entrp">    -14.76564886 </i>
    <i name="e_0_energy">    -14.76564886 </i>
   </energy>
  </scstep>
  <structure>
   <crystal>
    <varray name="basis" >
     <v>       8.00000000       0.00000000       0.00000000 </v>
     <v>       0.00000000       8.00000000       0.00000000 </v>
     <v>       0.00000000       0.00000000       8.00000000 </v>
    </varray>
    <i name="volume">    512.00000000 </i>
    <varray name="rec_basis" >
     <v>       0.12500000       0.00000000       0.00000000 </v>
     <v>       0.00000000       0.12500000       0.00000000 </v>
     <v>       0.00000000       0.00000000       0.12500000 </v>
    </varray>
   </crystal>
   <varray name="positions" >
    <v>       0.00000000       0.00000000       0.00000000 </v>
    <v>       0.00000000       0.00000000       0.14000000 </v>
   </varray>
  </structure>
  <varray name="forces" >
   <v>       0.00000000       0.00000000      -2.96344639 </v>
   <v>       0.00000000       0.00000000       2.96344639 </v>
  </varray>
  <varray name="stress" >
   <v>      -2.64232356       0.00000000       0.00000000 </v>
   <v>       0.00000000      -2.64232356       0.00000000 </v>
   <v>       0.00000000       0.00000000       7.91959088 </v>
  </varray>
  <energy>
   <i name="e_fr_energy">    -14.76564886 </i>
   <i name="e_wo_entrp">    -14.76564886 </i>
   <i name="e_0_energy">      0.00000000 </i>
  </energy>
  <time name="totalsc">    7.63    7.69</time>
 </calculation>
 <calculation>
  <scstep>
   <time name="dav">    0.27    0.27</time>
   <time name="total">    0.94    0.94</time>
   <energy>
    <i name="alphaZ">      0.85343271 </i>
    <i name="ewald">     -6.61722699 </i>
    <i name="hartreedc">   -497.11450860 </i>
    <i name="XCdc">     39.48240316 </i>
    <i name="pawpsdc">    904.63182867 </i>
    <i name="pawaedc">   -907.12065975 </i>
    <i name="eentropy">      0.00000000 </i>
    <i name="bandstr">   -126.31699190 </i>
    <i name="atom">    579.39041991 </i>
    <i name="e_fr_energy">    -12.81130279 </i>
    <i name="e_wo_entrp">    -12.81130279 </i>
    <i name="e_0_energy">    -12.81130279 </i>
   </energy>
  </scstep>
  <scstep>
   <time name="dav">    0.29    0.29</time>
   <time name="total">    0.92    0.92</time>
   <energy>
    <i name="e_fr_energy">    -12.66495225 </i>
    <i name="e_wo_entrp">    -12.66495225 </i>
    <i name="e_0_energy">    -12.66495225 </i>
   </energy>
  </scstep>
  <scstep>
   <time name="dav">    0.37    0.37</time>
   <time name="total">    1.01    1.02</time>
   <energy>
    <i name="e_fr_energy">    -12.62806246 </i>
    <i name="e_wo_entrp">    -12.62806246 </i>
    <i name="e_0_energy">    -12.62806246 </i>
   </energy>
  </scstep>
  <scstep>
   <time name="dav">    0.35    0.35</time>
   <time name="total">    0.98    0.98</time>
   <energy>
    <i name="e_fr_energy">    -12.59837963 </i>
    <i name="e_wo_entrp">    -12.59837963 </i>
    <i name="e_0_energy">    -12.59837963 </i>
   </energy>
  </scstep>
  <scstep>
   <time name="dav">    0.28    0.28</time>
   <time name="total">    0.91    0.92</time>
   <energy>
    <i name="e_fr_energy">    -12.60237318 </i>
    <i name="e_wo_entrp">    -12.60237318 </i>
    <i name="e_0_energy">    -12.60237318 </i>
   </energy>
  </scstep>
  <scstep>
   <time name="dav">    0.26    0.26</time>
   <time name="total">    0.89    0.89</time>
   <energy>
    <i name="e_fr_energy">    -12.60372678 </i>
    <i name="e_wo_entrp">    -12.60372678 </i>
    <i name="e_0_energy">    -12.60372678 </i>
   </energy>
  </scstep>
  <scstep>
   <time name="dav">    0.28    0.28</time>
   <time name="total">    0.91    0.91</time>
   <energy>
    <i name="e_fr_energy">    -12.60454648 </i>
    <i name="e_wo_entrp">    -12.60454648 </i>
    <i name="e_0_energy">    -12.60454648 </i>
   </energy>
  </scstep>
  <scstep>
   <time name="dav">    0.27    0.27</time>
   <time name="total">    0.92    0.93</time>
   <energy>
    <i name="e_fr_energy">    -12.60579531 </i>
    <i name="e_wo_entrp">    -12.60579530 </i>
    <i name="e_0_energy">    -12.60579531 </i>
   </energy>
  </scstep>
  <scstep>
   <time name="dav">    0.26    0.26</time>
   <time name="total">    0.92    0.92</time>
   <energy>
    <i name="e_fr_energy">    -12.60612220 </i>
    <i name="e_wo_entrp">    -12.60612220 </i>
    <i name="e_0_energy">    -12.60612220 </i>
   </energy>
  </scstep>
  <scstep>
   <time name="dav">    0.25    0.26</time>
   <time name="total">    0.95    0.96</time>
   <energy>
    <i name="e_fr_energy">    -12.60626630 </i>
    <i name="e_wo_entrp">    -12.60626630 </i>
    <i name="e_0_energy">    -12.60626630 </i>
   </energy>
  </scstep>
  <scstep>
   <time name="dav">    0.27    0.27</time>
   <time name="total">    0.83    0.83</time>
   <energy>
    <i name="alphaZ">      0.85343271 </i>
    <i name="ewald">     -6.61722699 </i>
    <i name="hartreedc">   -486.84847838 </i>
    <i name="XCdc">     38.80809802 </i>
    <i name="pawpsdc">    591.46182355 </i>
    <i name="pawaedc">   -593.69605672 </i>
    <i name="eentropy">      0.00000000 </i>
    <i name="bandstr">   -135.95831407 </i>
    <i name="atom">    579.39041991 </i>
    <i name="e_fr_energy">    -12.60630198 </i>
    <i name="e_wo_entrp">    -12.60630198 </i>
    <i name="e_0_energy">    -12.60630198 </i>
   </energy>
  </scstep>
  <structure>
   <crystal>
    <varray name="basis" >
     <v>       8.00000000       0.00000000       0.00000000 </v>
     <v>       0.00000000       8.00000000       0.00000000 </v>
     <v>       0.00000000       0.00000000       8.00000000 </v>
    </varray>
    <i name="volume">    512.00000000 </i>
    <varray name="rec_basis" >
     <v>       0.12500000       0.00000000       0.00000000 </v>
     <v>       0.00000000       0.12500000       0.00000000 </v>
     <v>       0.00000000       0.00000000       0.12500000 </v>
    </varray>
   </crystal>
   <varray name="positions" >
    <v>       0.00000000       0.00000000      -0.01787056 </v>
    <v>       0.00000000       0.00000000       0.15787056 </v>
   </varray>
  </structure>
  <varray name="forces" >
   <v>       0.00000000       0.00000000      12.28261507 </v>
   <v>       0.00000000       0.00000000     -12.28261507 </v>
  </varray>
  <varray name="stress" >
   <v>      -2.43983177       0.00000000       0.00000000 </v>
   <v>       0.00000000      -2.43983177       0.00000000 </v>
   <v>       0.00000000       0.00000000     -56.20380167 </v>
  </varray>
  <energy>
   <i name="e_fr_energy">    -12.60630198 </i>
   <i name="e_wo_entrp">    -12.60630198 </i>
   <i name="e_0_energy">      0.00000000 </i>
  </energy>
  <time name="totalsc">   12.13   12.20</time>
 </calculation>
 <calculation>
  <scstep>
   <time name="dav">    0.27    0.27</time>
   <time name="total">    0.98    0.98</time>
   <energy>
    <i name="alphaZ">      0.85343271 </i>
    <i name="ewald">     40.64245740 </i>
    <i name="hartreedc">   -517.84941371 </i>
    <i name="XCdc">     39.62327831 </i>
    <i name="pawpsdc">    591.40622877 </i>
    <i name="pawaedc">   -593.64062076 </i>
    <i name="eentropy">      0.00000000 </i>
    <i name="bandstr">   -155.11915865 </i>
    <i name="atom">    579.39041991 </i>
    <i name="e_fr_energy">    -14.69337602 </i>
    <i name="e_wo_entrp">    -14.69337602 </i>
    <i name="e_0_energy">    -14.69337602 </i>
   </energy>
  </scstep>
  <scstep>
   <time name="dav">    0.26    0.26</time>
   <time name="total">    0.88    0.89</time>
   <energy>
    <i name="e_fr_energy">    -14.84508567 </i>
    <i name="e_wo_entrp">    -14.84508567 </i>
    <i name="e_0_energy">    -14.84508567 </i>
   </energy>
  </scstep>
  <scstep>
   <time name="dav">    0.36    0.36</time>
   <time name="total">    1.00    1.03</time>
   <energy>
    <i name="e_fr_energy">    -14.76491895 </i>
    <i name="e_wo_entrp">    -14.76491895 </i>
    <i name="e_0_energy">    -14.76491895 </i>
   </energy>
  </scstep>
  <scstep>
   <time name="dav">    0.35    0.35</time>
   <time name="total">    0.98    0.99</time>
   <energy>
    <i name="e_fr_energy">    -14.74112678 </i>
    <i name="e_wo_entrp">    -14.74112678 </i>
    <i name="e_0_energy">    -14.74112678 </i>
   </energy>
  </scstep>
  <scstep>
   <time name="dav">    0.26    0.26</time>
   <time name="total">    0.91    0.93</time>
   <energy>
    <i name="e_fr_energy">    -14.74161866 </i>
    <i name="e_wo_entrp">    -14.74161866 </i>
    <i name="e_0_energy">    -14.74161866 </i>
   </energy>
  </scstep>
  <scstep>
   <time name="dav">    0.27    0.27</time>
   <time name="total">    0.92    0.93</time>
   <energy>
    <i name="e_fr_energy">    -14.74309928 </i>
    <i name="e_wo_entrp">    -14.74309928 </i>
    <i name="e_0_energy">    -14.74309928 </i>
   </energy>
  </scstep>
  <scstep>
   <time name="dav">    0.27    0.28</time>
   <time name="total">    0.91    0.92</time>
   <energy>
    <i name="e_fr_energy">    -14.74402937 </i>
    <i name="e_wo_entrp">    -14.74402937 </i>
    <i name="e_0_energy">    -14.74402937 </i>
   </energy>
  </scstep>
  <scstep>
   <time name="dav">    0.27    0.27</time>
   <time name="total">    0.92    0.92</time>
   <energy>
    <i name="e_fr_energy">    -14.74558034 </i>
    <i name="e_wo_entrp">    -14.74558034 </i>
    <i name="e_0_energy">    -14.74558034 </i>
   </energy>
  </scstep>
  <scstep>
   <time name="dav">    0.26    0.26</time>
   <time name="total">    0.91    0.91</time>
   <energy>
    <i name="e_fr_energy">    -14.74602929 </i>
    <i name="e_wo_entrp">    -14.74602929 </i>
    <i name="e_0_energy">    -14.74602929 </i>
   </energy>
  </scstep>
  <scstep>
   <time name="dav">    0.25    0.25</time>
   <time name="total">    0.90    0.90</time>
   <energy>
    <i name="e_fr_energy">    -14.74618257 </i>
    <i name="e_wo_entrp">    -14.74618257 </i>
    <i name="e_0_energy">    -14.74618257 </i>
   </energy>
  </scstep>
  <scstep>
   <time name="dav">    0.26    0.26</time>
   <time name="total">    0.82    0.84</time>
   <energy>
    <i name="alphaZ">      0.85343271 </i>
    <i name="ewald">     40.64245740 </i>
    <i name="hartreedc">   -526.36333180 </i>
    <i name="XCdc">     40.16585187 </i>
    <i name="pawpsdc">    810.05626572 </i>
    <i name="pawaedc">   -812.46677791 </i>
    <i name="eentropy">      0.00000000 </i>
    <i name="bandstr">   -147.02455032 </i>
    <i name="atom">    579.39041991 </i>
    <i name="e_fr_energy">    -14.74623242 </i>
    <i name="e_wo_entrp">    -14.74623242 </i>
    <i name="e_0_energy">    -14.74623242 </i>
   </energy>
  </scstep>
  <structure>
   <crystal>
    <varray name="basis" >
     <v>       8.00000000       0.00000000       0.00000000 </v>
     <v>       0.00000000       8.00000000       0.00000000 </v>
     <v>       0.00000000       0.00000000       8.00000000 </v>
    </varray>
    <i name="volume">    512.00000000 </i>
    <varray name="rec_basis" >
     <v>       0.12500000       0.00000000       0.00000000 </v>
     <v>       0.00000000       0.12500000       0.00000000 </v>
     <v>       0.00000000       0.00000000       0.12500000 </v>
    </varray>
   </crystal>
   <varray name="positions" >
    <v>       0.00000000       0.00000000      -0.00347358 </v>
    <v>       0.00000000       0.00000000       0.14347358 </v>
   </varray>
  </structure>
  <varray name="forces" >
   <v>       0.00000000       0.00000000       3.24402943 </v>
   <v>       0.00000000       0.00000000      -3.24402943 </v>
  </varray>
  <varray name="stress" >
   <v>      -2.41739736       0.00000000       0.00000000 </v>
   <v>       0.00000000      -2.41739736       0.00000000 </v>
   <v>       0.00000000       0.00000000     -14.17672332 </v>
  </varray>
  <energy>
   <i name="e_fr_energy">    -14.74623242 </i>
   <i name="e_wo_entrp">    -14.74623242 </i>
   <i name="e_0_energy">      0.00000000 </i>
  </energy>
  <time name="totalsc">   12.03   12.14</time>
 </calculation>
 <calculation>
  <scstep>
   <time name="dav">    0.29    0.29</time>
   <time name="total">    0.96    0.96</time>
   <energy>
    <i name="alphaZ">      0.85343271 </i>
    <i name="ewald">     47.98837881 </i>
    <i name="hartreedc">   -530.72300825 </i>
    <i name="XCdc">     40.29268269 </i>
    <i name="pawpsdc">    810.08123130 </i>
    <i name="pawaedc">   -812.49175307 </i>
    <i name="eentropy">      0.00000000 </i>
    <i name="bandstr">   -150.19345817 </i>
    <i name="atom">    579.39041991 </i>
    <i name="e_fr_energy">    -14.80207406 </i>
    <i name="e_wo_entrp">    -14.80207406 </i>
    <i name="e_0_energy">    -14.80207406 </i>
   </energy>
  </scstep>
  <scstep>
   <time name="dav">    0.28    0.28</time>
   <time name="total">    1.02    1.02</time>
   <energy>
    <i name="e_fr_energy">    -14.80116862 </i>
    <i name="e_wo_entrp">    -14.80116862 </i>
    <i name="e_0_energy">    -14.80116862 </i>
   </energy>
  </scstep>
  <scstep>
   <time name="dav">    0.28    0.28</time>
   <time name="total">    0.96    0.96</time>
   <energy>
    <i name="e_fr_energy">    -14.79943126 </i>
    <i name="e_wo_entrp">    -14.79943126 </i>
    <i name="e_0_energy">    -14.79943126 </i>
   </energy>
  </scstep>
  <scstep>
   <time name="dav">    0.28    0.29</time>
   <time name="total">    0.86    0.86</time>
   <energy>
    <i name="alphaZ">      0.85343271 </i>
    <i name="ewald">     47.98837881 </i>
    <i name="hartreedc">   -532.31397643 </i>
    <i name="XCdc">     40.38471742 </i>
    <i name="pawpsdc">    852.87851923 </i>
    <i name="pawaedc">   -855.32783173 </i>
    <i name="eentropy">      0.00000000 </i>
    <i name="bandstr">   -148.65306310 </i>
    <i name="atom">    579.39041991 </i>
    <i name="e_fr_energy">    -14.79940318 </i>
    <i name="e_wo_entrp">    -14.79940318 </i>
    <i name="e_0_energy">    -14.79940318 </i>
   </energy>
  </scstep>
  <structure>
   <crystal>
    <varray name="basis" >
     <v>       8.00000000       0.00000000       0.00000000 </v>
     <v>       0.00000000       8.00000000       0.00000000 </v>
     <v>       0.00000000       0.00000000       8.00000000 </v>
    </varray>
    <i name="volume">    512.00000000 </i>
    <varray name="rec_basis" >
     <v>       0.12500000       0.00000000       0.00000000 </v>
     <v>       0.00000000       0.12500000       0.00000000 </v>
     <v>       0.00000000       0.00000000       0.12500000 </v>
    </varray>
   </crystal>
   <varray name="positions" >
    <v>       0.00000000       0.00000000      -0.00165829 </v>
    <v>       0.00000000       0.00000000       0.14165829 </v>
   </varray>
  </structure>
  <varray name="forces" >
   <v>       0.00000000       0.00000000       0.30943527 </v>
   <v>       0.00000000       0.00000000      -0.30943527 </v>
  </varray>
  <varray name="stress" >
   <v>      -2.55346241       0.00000000       0.00000000 </v>
   <v>       0.00000000      -2.55346241       0.00000000 </v>
   <v>       0.00000000       0.00000000      -3.60390607 </v>
  </varray>
  <energy>
   <i name="e_fr_energy">    -14.79940318 </i>
   <i name="e_wo_entrp">    -14.79940318 </i>
   <i name="e_0_energy">      0.00000000 </i>
  </energy>
  <time name="totalsc">    5.53    5.54</time>
  <eigenvalues>
   <array>
    <dimension dim="1">band</dimension>
    <dimension dim="2">kpoint</dimension>
    <dimension dim="3">spin</dimension>
    <field>eigene</field>
    <field>occ</field>
    <set>
     <set comment="spin 1">
      <set comment="kpoint 1">
       <r>  -28.9300    1.0000 </r>
       <r>  -13.7612    1.0000 </r>
       <r>  -11.4322    1.0000 </r>
       <r>  -11.4322    1.0000 </r>
       <r>   -8.7711    1.0000 </r>
       <r>   -1.8824    0.0000 </r>
       <r>   -1.8824    0.0000 </r>
       <r>   -0.3152    0.0000 </r>
       <r>    1.6868    0.0000 </r>
      </set>
     </set>
    </set>
   </array>
  </eigenvalues>
  <separator name="orbital magnetization" >
   <v name="MAGDIPOLOUT">      0.00000000      0.00000000      0.00000000</v>
  </separator>
  <dos>
   <i name="efermi">     -7.85032871 </i>
   <total>
    <array>
     <dimension dim="1">gridpoints</dimension>
     <dimension dim="2">spin</dimension>
     <field>energy</field>
     <field>total</field>
     <field>integrated</field>
     <set>
      <set comment="spin 1">
       <r>   -30.9300     0.0000     0.0000 </r>
       <r>   -30.8146     0.0000     0.0000 </r>
       <r>   -30.6992     0.0000     0.0000 </r>
       <r>   -30.5838     0.0000     0.0000 </r>
       <r>   -30.4684     0.0000     0.0000 </r>
       <r>   -30.3531     0.0000     0.0000 </r>
       <r>   -30.2377     0.0000     0.0000 </r>
       <r>   -30.1223     0.0000     0.0000 </r>
       <r>   -30.0069     0.0000     0.0000 </r>
       <r>   -29.8915     0.0000     0.0000 </r>
       <r>   -29.7761     0.0000     0.0000 </r>
       <r>   -29.6607     0.0000     0.0000 </r>
       <r>   -29.5453     0.0001     0.0000 </r>
       <r>   -29.4299     0.0034     0.0004 </r>
       <r>   -29.3145     0.0532     0.0065 </r>
       <r>   -29.1992     0.4373     0.0570 </r>
       <r>   -29.0838     1.9056     0.2769 </r>
       <r>   -28.9684     4.4128     0.7861 </r>
       <r>   -28.8530     5.4410     1.4139 </r>
       <r>   -28.7376     3.5739     1.8263 </r>
       <r>   -28.6222     1.2493     1.9705 </r>
       <r>   -28.5068     0.2319     1.9972 </r>
       <r>   -28.3914     0.0228     1.9999 </r>
       <r>   -28.2760     0.0012     2.0000 </r>
       <r>   -28.1607     0.0000     2.0000 </r>
       <r>   -28.0453     0.0000     2.0000 </r>
       <r>   -27.9299     0.0000     2.0000 </r>
       <r>   -27.8145     0.0000     2.0000 </r>
       <r>   -27.6991     0.0000     2.0000 </r>
       <r>   -27.5837     0.0000     2.0000 </r>
       <r>   -27.4683     0.0000     2.0000 </r>
       <r>   -27.3529     0.0000     2.0000 </r>
       <r>   -27.2375     0.0000     2.0000 </r>
       <r>   -27.1222     0.0000     2.0000 </r>
       <r>   -27.0068     0.0000     2.0000 </r>
       <r>   -26.8914     0.0000     2.0000 </r>
       <r>   -26.7760     0.0000     2.0000 </r>
       <r>   -26.6606     0.0000     2.0000 </r>
       <r>   -26.5452     0.0000     2.0000 </r>
       <r>   -26.4298     0.0000     2.0000 </r>
       <r>   -26.3144     0.0000     2.0000 </r>
       <r>   -26.1990     0.0000     2.0000 </r>
       <r>   -26.0836     0.0000     2.0000 </r>
       <r>   -25.9683     0.0000     2.0000 </r>
       <r>   -25.8529     0.0000     2.0000 </r>
       <r>   -25.7375     0.0000     2.0000 </r>
       <r>   -25.6221     0.0000     2.0000 </r>
       <r>   -25.5067     0.0000     2.0000 </r>
       <r>   -25.3913     0.0000     2.0000 </r>
       <r>   -25.2759     0.0000     2.0000 </r>
       <r>   -25.1605     0.0000     2.0000 </r>
       <r>   -25.0451     0.0000     2.0000 </r>
       <r>   -24.9298     0.0000     2.0000 </r>
       <r>   -24.8144     0.0000     2.0000 </r>
       <r>   -24.6990     0.0000     2.0000 </r>
       <r>   -24.5836     0.0000     2.0000 </r>
       <r>   -24.4682     0.0000     2.0000 </r>
       <r>   -24.3528     0.0000     2.0000 </r>
       <r>   -24.2374     0.0000     2.0000 </r>
       <r>   -24.1220     0.0000     2.0000 </r>
       <r>   -24.0066     0.0000     2.0000 </r>
       <r>   -23.8912     0.0000     2.0000 </r>
       <r>   -23.7759     0.0000     2.0000 </r>
       <r>   -23.6605     0.0000     2.0000 </r>
       <r>   -23.5451     0.0000     2.0000 </r>
       <r>   -23.4297     0.0000     2.0000 </r>
       <r>   -23.3143     0.0000     2.0000 </r>
       <r>   -23.1989     0.0000     2.0000 </r>
       <r>   -23.0835     0.0000     2.0000 </r>
       <r>   -22.9681     0.0000     2.0000 </r>
       <r>   -22.8527     0.0000     2.0000 </r>
       <r>   -22.7374     0.0000     2.0000 </r>
       <r>   -22.6220     0.0000     2.0000 </r>
       <r>   -22.5066     0.0000     2.0000 </r>
       <r>   -22.3912     0.0000     2.0000 </r>
       <r>   -22.2758     0.0000     2.0000 </r>
       <r>   -22.1604     0.0000     2.0000 </r>
       <r>   -22.0450     0.0000     2.0000 </r>
       <r>   -21.9296     0.0000     2.0000 </r>
       <r>   -21.8142     0.0000     2.0000 </r>
       <r>   -21.6989     0.0000     2.0000 </r>
       <r>   -21.5835     0.0000     2.0000 </r>
       <r>   -21.4681     0.0000     2.0000 </r>
       <r>   -21.3527     0.0000     2.0000 </r>
       <r>   -21.2373     0.0000     2.0000 </r>
       <r>   -21.1219     0.0000     2.0000 </r>
       <r>   -21.0065     0.0000     2.0000 </r>
       <r>   -20.8911     0.0000     2.0000 </r>
       <r>   -20.7757     0.0000     2.0000 </r>
       <r>   -20.6603     0.0000     2.0000 </r>
       <r>   -20.5450     0.0000     2.0000 </r>
       <r>   -20.4296     0.0000     2.0000 </r>
       <r>   -20.3142     0.0000     2.0000 </r>
       <r>   -20.1988     0.0000     2.0000 </r>
       <r>   -20.0834     0.0000     2.0000 </r>
       <r>   -19.9680     0.0000     2.0000 </r>
       <r>   -19.8526     0.0000     2.0000 </r>
       <r>   -19.7372     0.0000     2.0000 </r>
       <r>   -19.6218     0.0000     2.0000 </r>
       <r>   -19.5065     0.0000     2.0000 </r>
       <r>   -19.3911     0.0000     2.0000 </r>
       <r>   -19.2757     0.0000     2.0000 </r>
       <r>   -19.1603     0.0000     2.0000 </r>
       <r>   -19.0449     0.0000     2.0000 </r>
       <r>   -18.9295     0.0000     2.0000 </r>
       <r>   -18.8141     0.0000     2.0000 </r>
       <r>   -18.6987     0.0000     2.0000 </r>
       <r>   -18.5833     0.0000     2.0000 </r>
       <r>   -18.4680     0.0000     2.0000 </r>
       <r>   -18.3526     0.0000     2.0000 </r>
       <r>   -18.2372     0.0000     2.0000 </r>
       <r>   -18.1218     0.0000     2.0000 </r>
       <r>   -18.0064     0.0000     2.0000 </r>
       <r>   -17.8910     0.0000     2.0000 </r>
       <r>   -17.7756     0.0000     2.0000 </r>
       <r>   -17.6602     0.0000     2.0000 </r>
       <r>   -17.5448     0.0000     2.0000 </r>
       <r>   -17.4294     0.0000     2.0000 </r>
       <r>   -17.3141     0.0000     2.0000 </r>
       <r>   -17.1987     0.0000     2.0000 </r>
       <r>   -17.0833     0.0000     2.0000 </r>
       <r>   -16.9679     0.0000     2.0000 </r>
       <r>   -16.8525     0.0000     2.0000 </r>
       <r>   -16.7371     0.0000     2.0000 </r>
       <r>   -16.6217     0.0000     2.0000 </r>
       <r>   -16.5063     0.0000     2.0000 </r>
       <r>   -16.3909     0.0000     2.0000 </r>
       <r>   -16.2756     0.0000     2.0000 </r>
       <r>   -16.1602     0.0000     2.0000 </r>
       <r>   -16.0448     0.0000     2.0000 </r>
       <r>   -15.9294     0.0000     2.0000 </r>
       <r>   -15.8140     0.0000     2.0000 </r>
       <r>   -15.6986     0.0000     2.0000 </r>
       <r>   -15.5832     0.0000     2.0000 </r>
       <r>   -15.4678     0.0000     2.0000 </r>
       <r>   -15.3524     0.0000     2.0000 </r>
       <r>   -15.2370     0.0000     2.0000 </r>
       <r>   -15.1217     0.0000     2.0000 </r>
       <r>   -15.0063     0.0000     2.0000 </r>
       <r>   -14.8909     0.0000     2.0000 </r>
       <r>   -14.7755     0.0000     2.0000 </r>
       <r>   -14.6601     0.0000     2.0000 </r>
       <r>   -14.5447     0.0000     2.0000 </r>
       <r>   -14.4293     0.0000     2.0000 </r>
       <r>   -14.3139     0.0008     2.0001 </r>
       <r>   -14.1985     0.0164     2.0020 </r>
       <r>   -14.0832     0.1804     2.0228 </r>
       <r>   -13.9678     1.0509     2.1441 </r>
       <r>   -13.8524     3.2492     2.5190 </r>
       <r>   -13.7370     5.3454     3.1358 </r>
       <r>   -13.6216     4.6845     3.6763 </r>
       <r>   -13.5062     2.1862     3.9286 </r>
       <r>   -13.3908     0.5424     3.9912 </r>
       <r>   -13.2754     0.0713     3.9994 </r>
       <r>   -13.1600     0.0050     4.0000 </r>
       <r>   -13.0447     0.0002     4.0000 </r>
       <r>   -12.9293     0.0000     4.0000 </r>
       <r>   -12.8139     0.0000     4.0000 </r>
       <r>   -12.6985     0.0000     4.0000 </r>
       <r>   -12.5831     0.0000     4.0000 </r>
       <r>   -12.4677     0.0000     4.0000 </r>
       <r>   -12.3523     0.0000     4.0000 </r>
       <r>   -12.2369     0.0000     4.0000 </r>
       <r>   -12.1215     0.0000     4.0000 </r>
       <r>   -12.0061     0.0008     4.0001 </r>
       <r>   -11.8908     0.0197     4.0024 </r>
       <r>   -11.7754     0.2434     4.0305 </r>
       <r>   -11.6600     1.5938     4.2144 </r>
       <r>   -11.5446     5.5359     4.8532 </r>
       <r>   -11.4292    10.2274     6.0333 </r>
       <r>   -11.3138    10.0641     7.1946 </r>
       <r>   -11.1984     5.2747     7.8032 </r>
       <r>   -11.0830     1.4703     7.9729 </r>
       <r>   -10.9676     0.2174     7.9980 </r>
       <r>   -10.8523     0.0170     7.9999 </r>
       <r>   -10.7369     0.0007     8.0000 </r>
       <r>   -10.6215     0.0000     8.0000 </r>
       <r>   -10.5061     0.0000     8.0000 </r>
       <r>   -10.3907     0.0000     8.0000 </r>
       <r>   -10.2753     0.0000     8.0000 </r>
       <r>   -10.1599     0.0000     8.0000 </r>
       <r>   -10.0445     0.0000     8.0000 </r>
       <r>    -9.9291     0.0000     8.0000 </r>
       <r>    -9.8138     0.0000     8.0000 </r>
       <r>    -9.6984     0.0000     8.0000 </r>
       <r>    -9.5830     0.0000     8.0000 </r>
       <r>    -9.4676     0.0000     8.0000 </r>
       <r>    -9.3522     0.0003     8.0000 </r>
       <r>    -9.2368     0.0082     8.0010 </r>
       <r>    -9.1214     0.1061     8.0132 </r>
       <r>    -9.0060     0.7226     8.0966 </r>
       <r>    -8.8906     2.6102     8.3978 </r>
       <r>    -8.7752     5.0140     8.9764 </r>
       <r>    -8.6599     5.1300     9.5683 </r>
       <r>    -8.5445     2.7956     9.8909 </r>
       <r>    -8.4291     0.8104     9.9844 </r>
       <r>    -8.3137     0.1246     9.9988 </r>
       <r>    -8.1983     0.0101     9.9999 </r>
       <r>    -8.0829     0.0004    10.0000 </r>
       <r>    -7.9675     0.0000    10.0000 </r>
       <r>    -7.8521     0.0000    10.0000 </r>
       <r>    -7.7367     0.0000    10.0000 </r>
       <r>    -7.6214     0.0000    10.0000 </r>
       <r>    -7.5060     0.0000    10.0000 </r>
       <r>    -7.3906     0.0000    10.0000 </r>
       <r>    -7.2752     0.0000    10.0000 </r>
       <r>    -7.1598     0.0000    10.0000 </r>
       <r>    -7.0444     0.0000    10.0000 </r>
       <r>    -6.9290     0.0000    10.0000 </r>
       <r>    -6.8136     0.0000    10.0000 </r>
       <r>    -6.6982     0.0000    10.0000 </r>
       <r>    -6.5828     0.0000    10.0000 </r>
       <r>    -6.4675     0.0000    10.0000 </r>
       <r>    -6.3521     0.0000    10.0000 </r>
       <r>    -6.2367     0.0000    10.0000 </r>
       <r>    -6.1213     0.0000    10.0000 </r>
       <r>    -6.0059     0.0000    10.0000 </r>
       <r>    -5.8905     0.0000    10.0000 </r>
       <r>    -5.7751     0.0000    10.0000 </r>
       <r>    -5.6597     0.0000    10.0000 </r>
       <r>    -5.5443     0.0000    10.0000 </r>
       <r>    -5.4290     0.0000    10.0000 </r>
       <r>    -5.3136     0.0000    10.0000 </r>
       <r>    -5.1982     0.0000    10.0000 </r>
       <r>    -5.0828     0.0000    10.0000 </r>
       <r>    -4.9674     0.0000    10.0000 </r>
       <r>    -4.8520     0.0000    10.0000 </r>
       <r>    -4.7366     0.0000    10.0000 </r>
       <r>    -4.6212     0.0000    10.0000 </r>
       <r>    -4.5058     0.0000    10.0000 </r>
       <r>    -4.3905     0.0000    10.0000 </r>
       <r>    -4.2751     0.0000    10.0000 </r>
       <r>    -4.1597     0.0000    10.0000 </r>
       <r>    -4.0443     0.0000    10.0000 </r>
       <r>    -3.9289     0.0000    10.0000 </r>
       <r>    -3.8135     0.0000    10.0000 </r>
       <r>    -3.6981     0.0000    10.0000 </r>
       <r>    -3.5827     0.0000    10.0000 </r>
       <r>    -3.4673     0.0000    10.0000 </r>
       <r>    -3.3519     0.0000    10.0000 </r>
       <r>    -3.2366     0.0000    10.0000 </r>
       <r>    -3.1212     0.0000    10.0000 </r>
       <r>    -3.0058     0.0000    10.0000 </r>
       <r>    -2.8904     0.0000    10.0000 </r>
       <r>    -2.7750     0.0000    10.0000 </r>
       <r>    -2.6596     0.0000    10.0000 </r>
       <r>    -2.5442     0.0000    10.0000 </r>
       <r>    -2.4288     0.0019    10.0002 </r>
       <r>    -2.3134     0.0380    10.0046 </r>
       <r>    -2.1981     0.4040    10.0512 </r>
       <r>    -2.0827     2.2727    10.3135 </r>
       <r>    -1.9673     6.7879    11.0967 </r>
       <r>    -1.8519    10.7882    12.3416 </r>
       <r>    -1.7365     9.1339    13.3955 </r>
       <r>    -1.6211     4.1179    13.8707 </r>
       <r>    -1.5057     0.9868    13.9845 </r>
       <r>    -1.3903     0.1253    13.9990 </r>
       <r>    -1.2749     0.0084    14.0000 </r>
       <r>    -1.1596     0.0003    14.0000 </r>
       <r>    -1.0442     0.0000    14.0000 </r>
       <r>    -0.9288     0.0001    14.0000 </r>
       <r>    -0.8134     0.0036    14.0004 </r>
       <r>    -0.6980     0.0552    14.0068 </r>
       <r>    -0.5826     0.4496    14.0587 </r>
       <r>    -0.4672     1.9400    14.2825 </r>
       <r>    -0.3518     4.4486    14.7959 </r>
       <r>    -0.2364     5.4317    15.4226 </r>
       <r>    -0.1210     3.5330    15.8303 </r>
       <r>    -0.0057     1.2229    15.9714 </r>
       <r>     0.1097     0.2248    15.9973 </r>
       <r>     0.2251     0.0219    15.9999 </r>
       <r>     0.3405     0.0011    16.0000 </r>
       <r>     0.4559     0.0000    16.0000 </r>
       <r>     0.5713     0.0000    16.0000 </r>
       <r>     0.6867     0.0000    16.0000 </r>
       <r>     0.8021     0.0000    16.0000 </r>
       <r>     0.9175     0.0000    16.0000 </r>
       <r>     1.0328     0.0000    16.0000 </r>
       <r>     1.1482     0.0012    16.0001 </r>
       <r>     1.2636     0.0228    16.0028 </r>
       <r>     1.3790     0.2319    16.0295 </r>
       <r>     1.4944     1.2493    16.1737 </r>
       <r>     1.6098     3.5739    16.5861 </r>
       <r>     1.7252     5.4410    17.2139 </r>
       <r>     1.8406     4.4128    17.7231 </r>
       <r>     1.9560     1.9056    17.9430 </r>
       <r>     2.0714     0.4373    17.9935 </r>
       <r>     2.1867     0.0532    17.9996 </r>
       <r>     2.3021     0.0034    18.0000 </r>
       <r>     2.4175     0.0001    18.0000 </r>
       <r>     2.5329     0.0000    18.0000 </r>
       <r>     2.6483     0.0000    18.0000 </r>
       <r>     2.7637     0.0000    18.0000 </r>
       <r>     2.8791     0.0000    18.0000 </r>
       <r>     2.9945     0.0000    18.0000 </r>
       <r>     3.1099     0.0000    18.0000 </r>
       <r>     3.2252     0.0000    18.0000 </r>
       <r>     3.3406     0.0000    18.0000 </r>
       <r>     3.4560     0.0000    18.0000 </r>
       <r>     3.5714     0.0000    18.0000 </r>
       <r>     3.6868     0.0000    18.0000 </r>
      </set>
     </set>
    </array>
   </total>
  </dos>
 </calculation>
 <structure name="finalpos" >
  <crystal>
   <varray name="basis" >
    <v>       8.00000000       0.00000000       0.00000000 </v>
    <v>       0.00000000       8.00000000       0.00000000 </v>
    <v>       0.00000000       0.00000000       8.00000000 </v>
   </varray>
   <i name="volume">    512.00000000 </i>
   <varray name="rec_basis" >
    <v>       0.12500000       0.00000000       0.00000000 </v>
    <v>       0.00000000       0.12500000       0.00000000 </v>
    <v>       0.00000000       0.00000000       0.12500000 </v>
   </varray>
  </crystal>
  <varray name="positions" >
   <v>       0.00000000       0.00000000      -0.00165829 </v>
   <v>       0.00000000       0.00000000       0.14165829 </v>
  </varray>
 </structure>
</modeling>
