CO molecule in a box                    
           1
     8.000000    0.000000    0.000000
     0.000000    8.000000    0.000000
     0.000000    0.000000    8.000000
   O    C 
   1   1
Direct configuration=     1
   0.00000000  0.00000000  0.00000000
   0.00000000  0.00000000  0.14000000
Direct configuration=     2
   0.00000000  0.00000000 -0.01787056
   0.00000000  0.00000000  0.15787056
Direct configuration=     3
   0.00000000  0.00000000 -0.00347358
   0.00000000  0.00000000  0.14347358
Direct configuration=     4
   0.00000000  0.00000000 -0.00165829
   0.00000000  0.00000000  0.14165829
