fcc Si                                  
   4.30000000000000     
     0.500000    0.500000    0.000000
     0.000000    0.500000    0.500000
     0.500000    0.000000    0.500000
   Si
     1
Direct
  0.000000  0.000000  0.000000
 
   24   24   24
 -.32530060924E+01 -.23627814469E+01 -.21392988888E-01 0.29359005475E+01 0.55424720175E+01
 0.71004479894E+01 0.74156683391E+01 0.67825082014E+01 0.57641686810E+01 0.48231596280E+01
 0.41068972988E+01 0.36683895370E+01 0.35218493636E+01 0.36683895370E+01 0.41068972988E+01
 0.48231596280E+01 0.57641686810E+01 0.67825082014E+01 0.74156683391E+01 0.71004479894E+01
 0.55424720175E+01 0.29359005475E+01 -.21392988888E-01 -.23627814469E+01 -.23627982787E+01
 -.74973191933E+00 0.18805153204E+01 0.46104064020E+01 0.66018932677E+01 0.74209225867E+01
 0.71434680979E+01 0.62268311020E+01 0.52211679851E+01 0.43916158810E+01 0.38181929489E+01
 0.35292776416E+01 0.35292169066E+01 0.38181167541E+01 0.43916470483E+01 0.52212321923E+01
 0.62268245300E+01 0.71434792380E+01 0.74210893137E+01 0.66021663556E+01 0.46106418072E+01
 0.18806788648E+01 -.74960535142E+00 -.23627415030E+01 -.21413973523E-01 0.18804674622E+01
 0.42413353788E+01 0.62429091055E+01 0.73120845827E+01 0.73209882583E+01 0.65637599423E+01
 0.55505702362E+01 0.46462323579E+01 0.39640553366E+01 0.35486599404E+01 0.34102112163E+01
 0.35486457749E+01 0.39640245588E+01 0.46461895165E+01 0.55505375456E+01 0.65637794169E+01
 0.73211074386E+01 0.73123326072E+01 0.62432718915E+01 0.42417495274E+01 0.18808321323E+01
 -.21200151966E-01 -.74959115679E+00 0.29359284820E+01 0.46103616358E+01 0.62428501446E+01
 0.72527417319E+01 0.73812407300E+01 0.67581785390E+01 0.57838339435E+01 0.48463271869E+01
 0.40899923984E+01 0.35734777680E+01 0.33149852503E+01 0.33150469165E+01 0.35735294179E+01
 0.40898837160E+01 0.48461660123E+01 0.57837885097E+01 0.67582173108E+01 0.73813012857E+01
 0.72529465498E+01 0.62433006186E+01 0.46108929761E+01 0.29362869007E+01 0.18808352242E+01
 0.18807236311E+01 0.55425385735E+01 0.66019100995E+01 0.73120390113E+01 0.73812127955E+01
 0.68204205726E+01 0.59042710574E+01 0.49733821109E+01 0.41816662920E+01 0.35964978666E+01
 0.32440450396E+01 0.31271252144E+01 0.32440626677E+01 0.35965010367E+01 0.41816169175E+01
 0.49732717694E+01 0.59041396845E+01 0.68203462903E+01 0.73812703077E+01 0.73122556036E+01
 0.66022386989E+01 0.55428684299E+01 0.46108650416E+01 0.42417039560E+01 0.46106586390E+01
 0.71004809247E+01 0.74209723538E+01 0.73209863493E+01 0.67581735381E+01 0.59043039928E+01
 0.50169690641E+01 0.42296960201E+01 0.36119835195E+01 0.31966516371E+01 0.29902875506E+01
 0.29902528794E+01 0.31966556452E+01 0.36121084924E+01 0.42297687882E+01 0.50168435715E+01
 0.59041312565E+01 0.67581437911E+01 0.73210322736E+01 0.74209776157E+01 0.71005286403E+01
 0.66022716342E+01 0.62433056195E+01 0.62432079297E+01 0.66021165885E+01 0.74156473545E+01
 0.71434931366E+01 0.65637599423E+01 0.57838200075E+01 0.49734276823E+01 0.42297708259E+01
 0.36174474855E+01 0.31726643737E+01 0.29069999854E+01 0.28191742321E+01 0.29070781552E+01
 0.31727914333E+01 0.36175781410E+01 0.42298610107E+01 0.49734530874E+01 0.57837800204E+01
 0.65636758357E+01 0.71433951944E+01 0.74155589240E+01 0.74209686806E+01 0.73123011751E+01
 0.72530163547E+01 0.73123326072E+01 0.74210306114E+01 0.67824850093E+01 0.62268374624E+01
 0.55505624019E+01 0.48462760603E+01 0.41816430999E+01 0.36120396470E+01 0.31727294363E+01
 0.28790193606E+01 0.27331720350E+01 0.27332422734E+01 0.28791363510E+01 0.31727978306E+01
 0.36121473415E+01 0.41818544649E+01 0.48464513520E+01 0.55505726286E+01 0.62267666184E+01
 0.67824377701E+01 0.71433765160E+01 0.73209761461E+01 0.73812471156E+01 0.73813524122E+01
 0.73211616571E+01 0.71434728777E+01 0.57641677855E+01 0.52211848168E+01 0.46462542380E+01
 0.40899644640E+01 0.35964304150E+01 0.31966187018E+01 0.29070218655E+01 0.27331952271E+01
 0.26753925204E+01 0.27331534184E+01 0.29069825909E+01 0.31966419802E+01 0.35965522910E+01
 0.40901705098E+01 0.46464804384E+01 0.52213542674E+01 0.57642256490E+01 0.62267898105E+01
 0.65636977159E+01 0.67581108557E+01 0.68202788388E+01 0.67581893763E+01 0.65638012970E+01
 0.62268413618E+01 0.48231513854E+01 0.43916244702E+01 0.39640946056E+01 0.35735139451E+01
 0.32440367970E+01 0.29902463726E+01 0.28191406042E+01 0.27332273239E+01 0.27331451758E+01
 0.28189624559E+01 0.29900901687E+01 0.32439582741E+01 0.35735363095E+01 0.39642478847E+01
 0.43918723775E+01 0.48233731108E+01 0.52213460247E+01 0.55505875781E+01 0.57838301335E+01
 0.59041724345E+01 0.59041314419E+01 0.57837523326E+01 0.55505147618E+01 0.52212236032E+01
 0.41068763142E+01 0.38181722708E+01 0.35486599404E+01 0.33150170311E+01 0.31271707858E+01
 0.29902819684E+01 0.29070781552E+01 0.28791170052E+01 0.29069607108E+01 0.29900780798E+01
 0.31269347262E+01 0.33148131087E+01 0.35485451866E+01 0.38181832724E+01 0.41070152254E+01
 0.43918679812E+01 0.46464585583E+01 0.48464243136E+01 0.49734530874E+01 0.50168803531E+01
 0.49733173408E+01 0.48461901005E+01 0.46461895165E+01 0.43916340629E+01 0.36683889319E+01
 0.35292614148E+01 0.34101807950E+01 0.33150183769E+01 0.32440620627E+01 0.31966891857E+01
 0.31728339088E+01 0.31728204177E+01 0.31966413752E+01 0.32439506365E+01 0.33148098674E+01
 0.34098951715E+01 0.35289966589E+01 0.36682603890E+01 0.38181877238E+01 0.39642555222E+01
 0.40901699047E+01 0.41818318779E+01 0.42298197452E+01 0.42297352478E+01 0.41816163124E+01
 0.40899122556E+01 0.39640561903E+01 0.38181329808E+01 0.35218679469E+01 0.35292337384E+01
 0.35486481763E+01 0.35735014834E+01 0.35964530640E+01 0.36120755570E+01 0.36175805423E+01
 0.36121705336E+01 0.35965717698E+01 0.35735445521E+01 0.35485475879E+01 0.35289972640E+01
 0.35215760295E+01 0.35289972640E+01 0.35485475879E+01 0.35735445521E+01 0.35965717698E+01
 0.36121705336E+01 0.36175805423E+01 0.36120755570E+01 0.35964530640E+01 0.35735014834E+01
 0.35486481763E+01 0.35292337384E+01 0.36683889319E+01 0.38181329808E+01 0.39640561903E+01
 0.40899122556E+01 0.41816163124E+01 0.42297352478E+01 0.42298197452E+01 0.41818318779E+01
 0.40901699047E+01 0.39642555222E+01 0.38181877238E+01 0.36682603890E+01 0.35289966589E+01
 0.34098951715E+01 0.33148098674E+01 0.32439506365E+01 0.31966413752E+01 0.31728204177E+01
 0.31728339088E+01 0.31966891857E+01 0.32440620627E+01 0.33150183769E+01 0.34101807950E+01
 0.35292614148E+01 0.41068763142E+01 0.43916340629E+01 0.46461895165E+01 0.48461901005E+01
 0.49733173408E+01 0.50168803531E+01 0.49734530874E+01 0.48464243136E+01 0.46464585583E+01
 0.43918679812E+01 0.41070152254E+01 0.38181832724E+01 0.35485451866E+01 0.33148131087E+01
 0.31269347262E+01 0.29900780798E+01 0.29069607108E+01 0.28791170052E+01 0.29070781552E+01
 0.29902819684E+01 0.31271707858E+01 0.33150170311E+01 0.35486599404E+01 0.38181722708E+01
 0.48231513854E+01 0.52212236032E+01 0.55505147618E+01 0.57837523326E+01 0.59041314419E+01
 0.59041724345E+01 0.57838301335E+01 0.55505875781E+01 0.52213460247E+01 0.48233731108E+01
 0.43918723775E+01 0.39642478847E+01 0.35735363095E+01 0.32439582741E+01 0.29900901687E+01
 0.28189624559E+01 0.27331451758E+01 0.27332273239E+01 0.28191406042E+01 0.29902463726E+01
 0.32440367970E+01 0.35735139451E+01 0.39640946056E+01 0.43916244702E+01 0.57641677855E+01
 0.62268413618E+01 0.65638012970E+01 0.67581893763E+01 0.68202788388E+01 0.67581108557E+01
 0.65636977159E+01 0.62267898105E+01 0.57642256490E+01 0.52213542674E+01 0.46464804384E+01
 0.40901705098E+01 0.35965522910E+01 0.31966419802E+01 0.29069825909E+01 0.27331534184E+01
 0.26753925204E+01 0.27331952271E+01 0.29070218655E+01 0.31966187018E+01 0.35964304150E+01
 0.40899644640E+01 0.46462542380E+01 0.52211848168E+01 0.67824850093E+01 0.71434728777E+01
 0.73211616571E+01 0.73813524122E+01 0.73812471156E+01 0.73209761461E+01 0.71433765160E+01
 0.67824377701E+01 0.62267666184E+01 0.55505726286E+01 0.48464513520E+01 0.41818544649E+01
 0.36121473415E+01 0.31727978306E+01 0.28791363510E+01 0.27332422734E+01 0.27331720350E+01
 0.28790193606E+01 0.31727294363E+01 0.36120396470E+01 0.41816430999E+01 0.48462760603E+01
 0.55505624019E+01 0.62268374624E+01 0.74156473545E+01 0.74210306114E+01 0.73123326072E+01
 0.72530163547E+01 0.73123011751E+01 0.74209686806E+01 0.74155589240E+01 0.71433951944E+01
 0.65636758357E+01 0.57837800204E+01 0.49734530874E+01 0.42298610107E+01 0.36175781410E+01
 0.31727914333E+01 0.29070781552E+01 0.28191742321E+01 0.29069999854E+01 0.31726643737E+01
 0.36174474855E+01 0.42297708259E+01 0.49734276823E+01 0.57838200075E+01 0.65637599423E+01
 0.71434931366E+01 0.71004809247E+01 0.66021165885E+01 0.62432079297E+01 0.62433056195E+01
 0.66022716342E+01 0.71005286403E+01 0.74209776157E+01 0.73210322736E+01 0.67581437911E+01
 0.59041312565E+01 0.50168435715E+01 0.42297687882E+01 0.36121084924E+01 0.31966556452E+01
 0.29902528794E+01 0.29902875506E+01 0.31966516371E+01 0.36119835195E+01 0.42296960201E+01
 0.50169690641E+01 0.59043039928E+01 0.67581735381E+01 0.73209863493E+01 0.74209723538E+01
 0.55425385735E+01 0.46106586390E+01 0.42417039560E+01 0.46108650416E+01 0.55428684299E+01
 0.66022386989E+01 0.73122556036E+01 0.73812703077E+01 0.68203462903E+01 0.59041396845E+01
 0.49732717694E+01 0.41816169175E+01 0.35965010367E+01 0.32440626677E+01 0.31271252144E+01
 0.32440450396E+01 0.35964978666E+01 0.41816662920E+01 0.49733821109E+01 0.59042710574E+01
 0.68204205726E+01 0.73812127955E+01 0.73120390113E+01 0.66019100995E+01 0.29359284820E+01
 0.18807236311E+01 0.18808352242E+01 0.29362869007E+01 0.46108929761E+01 0.62433006186E+01
 0.72529465498E+01 0.73813012857E+01 0.67582173108E+01 0.57837885097E+01 0.48461660123E+01
 0.40898837160E+01 0.35735294179E+01 0.33150469165E+01 0.33149852503E+01 0.35734777680E+01
 0.40899923984E+01 0.48463271869E+01 0.57838339435E+01 0.67581785390E+01 0.73812407300E+01
 0.72527417319E+01 0.62428501446E+01 0.46103616358E+01 -.21413973523E-01 -.74959115679E+00
 -.21200151966E-01 0.18808321323E+01 0.42417495274E+01 0.62432718915E+01 0.73123326072E+01
 0.73211074386E+01 0.65637794169E+01 0.55505375456E+01 0.46461895165E+01 0.39640245588E+01
 0.35486457749E+01 0.34102112163E+01 0.35486599404E+01 0.39640553366E+01 0.46462323579E+01
 0.55505702362E+01 0.65637599423E+01 0.73209882583E+01 0.73120845827E+01 0.62429091055E+01
 0.42413353788E+01 0.18804674622E+01 -.23627982787E+01 -.23627415030E+01 -.74960535142E+00
 0.18806788648E+01 0.46106418072E+01 0.66021663556E+01 0.74210893137E+01 0.71434792380E+01
 0.62268245300E+01 0.52212321923E+01 0.43916470483E+01 0.38181167541E+01 0.35292169066E+01
 0.35292776416E+01 0.38181929489E+01 0.43916158810E+01 0.52211679851E+01 0.62268311020E+01
 0.71434680979E+01 0.74209225867E+01 0.66018932677E+01 0.46104064020E+01 0.18805153204E+01
 -.74973191933E+00 -.23627982787E+01 -.74973191933E+00 0.18805153204E+01 0.46104064020E+01
 0.66018932677E+01 0.74209225867E+01 0.71434680979E+01 0.62268311020E+01 0.52211679851E+01
 0.43916158810E+01 0.38181929489E+01 0.35292776416E+01 0.35292169066E+01 0.38181167541E+01
 0.43916470483E+01 0.52212321923E+01 0.62268245300E+01 0.71434792380E+01 0.74210893137E+01
 0.66021663556E+01 0.46106418072E+01 0.18806788648E+01 -.74960535142E+00 -.23627415030E+01
 -.74970211215E+00 0.12947201875E+01 0.38481060353E+01 0.60435231932E+01 0.72675305243E+01
 0.73715083093E+01 0.66505733488E+01 0.56330825158E+01 0.47156677457E+01 0.40216311427E+01
 0.35983432789E+01 0.34571697927E+01 0.35983374875E+01 0.40216025902E+01 0.47156246851E+01
 0.56330658313E+01 0.66506268687E+01 0.73716747126E+01 0.72678457789E+01 0.60439586072E+01
 0.38485372892E+01 0.12950121657E+01 -.74957781435E+00 -.15305755899E+01 0.18805299171E+01
 0.38480876782E+01 0.58140839992E+01 0.71178486775E+01 0.74474963644E+01 0.69184116583E+01
 0.59509667697E+01 0.49885178149E+01 0.42069199137E+01 0.36711701445E+01 0.34025437510E+01
 0.34026036770E+01 0.36712152821E+01 0.42068016807E+01 0.49883550300E+01 0.59509425094E+01
 0.69185062341E+01 0.74476512681E+01 0.71181685013E+01 0.58146249214E+01 0.38486452842E+01
 0.18808628619E+01 0.65344548112E+00 0.65335363615E+00 0.46104281645E+01 0.60434937455E+01
 0.71177808238E+01 0.74596224752E+01 0.70422063148E+01 0.61501191767E+01 0.51846346672E+01
 0.43543744597E+01 0.37370567787E+01 0.33640871198E+01 0.32401889993E+01 0.33640734376E+01
 0.37370232724E+01 0.43542934701E+01 0.51844894774E+01 0.61499628931E+01 0.70421504870E+01
 0.74597555053E+01 0.71181166280E+01 0.60439699453E+01 0.46109150857E+01 0.33975115002E+01
 0.29235950689E+01 0.33971955000E+01 0.66019439429E+01 0.72675590637E+01 0.74474334637E+01
 0.70421286236E+01 0.62174239341E+01 0.52870304798E+01 0.44488878077E+01 0.37860514676E+01
 0.33386070263E+01 0.31159180963E+01 0.31158611643E+01 0.33385635963E+01 0.37861232843E+01
 0.44488862632E+01 0.52867968947E+01 0.62171526212E+01 0.70420763094E+01 0.74475581593E+01
 0.72677212937E+01 0.66021792744E+01 0.57877354569E+01 0.52394790550E+01 0.52393169123E+01
 0.57874207898E+01 0.74209469349E+01 0.73715857445E+01 0.69184346322E+01 0.61500704332E+01
 0.52869966096E+01 0.44814806566E+01 0.38120762074E+01 0.33237307691E+01 0.30316604534E+01
 0.29350959234E+01 0.30317361504E+01 0.33238374942E+01 0.38121438550E+01 0.44814567630E+01
 0.52868862234E+01 0.61499266509E+01 0.69183177803E+01 0.73715262499E+01 0.74209488226E+01
 0.71704865904E+01 0.68585048802E+01 0.67218177811E+01 0.68584658606E+01 0.71704451692E+01
 0.71434231787E+01 0.66506057694E+01 0.59510234660E+01 0.51846489630E+01 0.44488913078E+01
 0.38121041229E+01 0.33189155458E+01 0.29890372015E+01 0.28254205857E+01 0.28255216479E+01
 0.29892107590E+01 0.33190069058E+01 0.38121813973E+01 0.44490323060E+01 0.51847208760E+01
 0.59509041017E+01 0.66504230088E+01 0.71433294865E+01 0.73753359333E+01 0.74119895684E+01
 0.73813126933E+01 0.73813938670E+01 0.74121230070E+01 0.73754078186E+01 0.62267768181E+01
 0.56330484310E+01 0.49885229261E+01 0.43543760054E+01 0.37860531350E+01 0.33237749706E+01
 0.29890959620E+01 0.27887637155E+01 0.27223266394E+01 0.27887914062E+01 0.29891633103E+01
 0.33238960544E+01 0.37862217838E+01 0.43545489727E+01 0.49886441954E+01 0.56330846437E+01
 0.62267269758E+01 0.66964105803E+01 0.69965898904E+01 0.71456168747E+01 0.71879901798E+01
 0.71457064505E+01 0.69967194176E+01 0.66965205887E+01 0.52211716629E+01 0.47156465188E+01
 0.42069018100E+01 0.37370266631E+01 0.33385600290E+01 0.30316445715E+01 0.28254619544E+01
 0.27223726167E+01 0.27223130716E+01 0.28253580575E+01 0.30316076523E+01 0.33386029422E+01
 0.37371295269E+01 0.42070887114E+01 0.47158950298E+01 0.52213557253E+01 0.56788118963E+01
 0.60496079815E+01 0.63040587283E+01 0.64300484245E+01 0.64300462520E+01 0.63040832158E+01
 0.60496580917E+01 0.56787802766E+01 0.43916406424E+01 0.40216525569E+01 0.36711915988E+01
 0.33640933526E+01 0.31158847106E+01 0.29350399024E+01 0.28254922176E+01 0.27888022277E+01
 0.28253744696E+01 0.29348379809E+01 0.31156822075E+01 0.33639919627E+01 0.36712401226E+01
 0.40218184245E+01 0.43918541319E+01 0.47509267987E+01 0.50668776771E+01 0.53117306287E+01
 0.54657587930E+01 0.55181762434E+01 0.54656946489E+01 0.53116033656E+01 0.50666992371E+01
 0.47507170131E+01 0.38181775822E+01 0.35983461863E+01 0.34025705154E+01 0.32402324951E+01
 0.31158943354E+01 0.30317346148E+01 0.29891808271E+01 0.29891337448E+01 0.30315959763E+01
 0.31156822096E+01 0.32399927713E+01 0.34023612269E+01 0.35982198400E+01 0.38181771314E+01
 0.40466502676E+01 0.42631947323E+01 0.44464025017E+01 0.45783130011E+01 0.46470267515E+01
 0.46469510388E+01 0.45781042521E+01 0.44461223166E+01 0.42629391620E+01 0.40465060851E+01
 0.35292512661E+01 0.34571356220E+01 0.34025808041E+01 0.33640750119E+01 0.33385932410E+01
 0.33238817035E+01 0.33190377348E+01 0.33238960831E+01 0.33385849282E+01 0.33639811472E+01
 0.34023628636E+01 0.34568357476E+01 0.35289850063E+01 0.36160486583E+01 0.37098531163E+01
 0.37986337427E+01 0.38706091127E+01 0.39169712860E+01 0.39328585018E+01 0.39168265987E+01
 0.38703871765E+01 0.37984398606E+01 0.37097899565E+01 0.36161682466E+01 0.35292322469E+01
 0.35983277416E+01 0.36711855072E+01 0.37369816567E+01 0.37860879494E+01 0.38121394996E+01
 0.38122111634E+01 0.37862563040E+01 0.37371411894E+01 0.36712352146E+01 0.35982198916E+01
 0.35289915495E+01 0.34722085955E+01 0.34315622174E+01 0.34056366821E+01 0.33902966825E+01
 0.33816621436E+01 0.33776369636E+01 0.33776086326E+01 0.33816031171E+01 0.33902753228E+01
 0.34057266066E+01 0.34317815802E+01 0.34724933513E+01 0.38181415308E+01 0.40216331314E+01
 0.42068230867E+01 0.43542905573E+01 0.44488529045E+01 0.44814098691E+01 0.44490028505E+01
 0.43545506938E+01 0.42071051852E+01 0.40218275516E+01 0.38181770746E+01 0.36160503363E+01
 0.34315671619E+01 0.32748190184E+01 0.31505227388E+01 0.30604719590E+01 0.30057357080E+01
 0.29873419328E+01 0.30057836114E+01 0.30605990221E+01 0.31507387252E+01 0.32750798659E+01
 0.34317973748E+01 0.36161740146E+01 0.43916262369E+01 0.47156328588E+01 0.49883871600E+01
 0.51845276697E+01 0.52868246929E+01 0.52868899884E+01 0.51846963097E+01 0.49886093293E+01
 0.47158780060E+01 0.43918594626E+01 0.40466556333E+01 0.37098461447E+01 0.34056312360E+01
 0.31505280928E+01 0.29540636943E+01 0.28211298366E+01 0.27541643177E+01 0.27542342023E+01
 0.28213047184E+01 0.29542737609E+01 0.31507130750E+01 0.34057385158E+01 0.37098255012E+01
 0.40465007195E+01 0.52211939510E+01 0.56330315627E+01 0.59509314170E+01 0.61499645000E+01
 0.62171704716E+01 0.61499708574E+01 0.59509467655E+01 0.56330847049E+01 0.52213259032E+01
 0.47509159901E+01 0.42632082269E+01 0.37986337753E+01 0.33902782945E+01 0.30604702379E+01
 0.28211486347E+01 0.26769513186E+01 0.26289131013E+01 0.26770572458E+01 0.28212891772E+01
 0.30605506534E+01 0.33902350796E+01 0.37984632711E+01 0.42629712032E+01 0.47507020854E+01
 0.62268249472E+01 0.66506023661E+01 0.69184913518E+01 0.70421235773E+01 0.70420260515E+01
 0.69182987480E+01 0.66504677826E+01 0.62267762730E+01 0.56788086357E+01 0.50668580669E+01
 0.44464175612E+01 0.38706304535E+01 0.33816472205E+01 0.30057160246E+01 0.27541847250E+01
 0.26289462615E+01 0.26289293187E+01 0.27541753457E+01 0.30057254207E+01 0.33815681412E+01
 0.38703997325E+01 0.44461559929E+01 0.50667120405E+01 0.56787835372E+01 0.71435035322E+01
 0.73716720687E+01 0.74476731153E+01 0.74597857219E+01 0.74475242834E+01 0.73714461708E+01
 0.71433005588E+01 0.66964455614E+01 0.60496240207E+01 0.53117065706E+01 0.45783134408E+01
 0.39170062208E+01 0.33776414940E+01 0.29873087478E+01 0.27542293107E+01 0.26770921866E+01
 0.27541946014E+01 0.29872183024E+01 0.33774988829E+01 0.39168532174E+01 0.45781953153E+01
 0.53116450426E+01 0.60496406438E+01 0.66965595132E+01 0.74211002972E+01 0.72678205498E+01
 0.71181684568E+01 0.71181878726E+01 0.72677809086E+01 0.74209191569E+01 0.73752791925E+01
 0.69965881682E+01 0.63040736614E+01 0.54657307817E+01 0.46469999427E+01 0.39328846427E+01
 0.33776351435E+01 0.30057556464E+01 0.28212725439E+01 0.28213034622E+01 0.30057369487E+01
 0.33774704585E+01 0.39327340218E+01 0.46470262612E+01 0.54658356782E+01 0.63041189382E+01
 0.69966537022E+01 0.73754645593E+01 0.66021851263E+01 0.60439225587E+01 0.58145555988E+01
 0.60439721456E+01 0.66022542077E+01 0.71705290539E+01 0.74119739790E+01 0.71456175292E+01
 0.64300757794E+01 0.55181638355E+01 0.46469063688E+01 0.39168272247E+01 0.33816418806E+01
 0.30605957114E+01 0.29542344224E+01 0.30605512467E+01 0.33815921099E+01 0.39168166854E+01
 0.46469538626E+01 0.55182577196E+01 0.64301825643E+01 0.71456946941E+01 0.74119911743E+01
 0.71704856692E+01 0.46106886901E+01 0.38485574803E+01 0.38485815739E+01 0.46108410836E+01
 0.57877316646E+01 0.68585306242E+01 0.73813086859E+01 0.71879923640E+01 0.64300894571E+01
 0.54657199090E+01 0.45780706706E+01 0.38703614870E+01 0.33903068654E+01 0.31507638985E+01
 0.31506848663E+01 0.33902212443E+01 0.38704461981E+01 0.45782209020E+01 0.54657755560E+01
 0.64301116455E+01 0.71880579697E+01 0.73812743539E+01 0.68582773769E+01 0.57874245821E+01
 0.18807025376E+01 0.12950788523E+01 0.18808821624E+01 0.33974691176E+01 0.52394444178E+01
 0.67218070325E+01 0.73813624812E+01 0.71456688824E+01 0.63040984732E+01 0.53116486381E+01
 0.44461203896E+01 0.37984023767E+01 0.34057304260E+01 0.32751160113E+01 0.34057312604E+01
 0.37984258384E+01 0.44461745807E+01 0.53117143731E+01 0.63041449940E+01 0.71456588994E+01
 0.73812481682E+01 0.67215637053E+01 0.52391175458E+01 0.33971635483E+01 -.74964678775E+00
 -.74955314349E+00 0.65349503705E+00 0.29236135126E+01 0.52393239204E+01 0.68584859489E+01
 0.74121158666E+01 0.69966649831E+01 0.60496204647E+01 0.50667209567E+01 0.42629619535E+01
 0.37097634718E+01 0.34317556460E+01 0.34318191952E+01 0.37098429271E+01 0.42629328856E+01
 0.50666711921E+01 0.60496620572E+01 0.69967033026E+01 0.74120109752E+01 0.68582851944E+01
 0.52391414193E+01 0.29234376256E+01 0.65330408022E+00 -.23627947561E+01 -.15306129684E+01
 0.65335546090E+00 0.33971981436E+01 0.57874236054E+01 0.71704861125E+01 0.73754632306E+01
 0.66965216866E+01 0.56787355963E+01 0.47507031220E+01 0.40465323886E+01 0.36161693158E+01
 0.34724601596E+01 0.36161693158E+01 0.40465323886E+01 0.47507031220E+01 0.56787355963E+01
 0.66965216866E+01 0.73754632306E+01 0.71704861125E+01 0.57874236054E+01 0.33971981436E+01
 0.65335546090E+00 -.15306129684E+01 -.21413973523E-01 0.18804674622E+01 0.42413353788E+01
 0.62429091055E+01 0.73120845827E+01 0.73209882583E+01 0.65637599423E+01 0.55505702362E+01
 0.46462323579E+01 0.39640553366E+01 0.35486599404E+01 0.34102112163E+01 0.35486457749E+01
 0.39640245588E+01 0.46461895165E+01 0.55505375456E+01 0.65637794169E+01 0.73211074386E+01
 0.73123326072E+01 0.62432718915E+01 0.42417495274E+01 0.18808321323E+01 -.21200151966E-01
 -.74959115679E+00 0.18805299171E+01 0.38480876782E+01 0.58140839992E+01 0.71178486775E+01
 0.74474963644E+01 0.69184116583E+01 0.59509667697E+01 0.49885178149E+01 0.42069199137E+01
 0.36711701445E+01 0.34025437510E+01 0.34026036770E+01 0.36712152821E+01 0.42068016807E+01
 0.49883550300E+01 0.59509425094E+01 0.69185062341E+01 0.74476512681E+01 0.71181685013E+01
 0.58146249214E+01 0.38486452842E+01 0.18808628619E+01 0.65344548112E+00 0.65335363615E+00
 0.42413804619E+01 0.58141121891E+01 0.70256814419E+01 0.74721996516E+01 0.71124983312E+01
 0.62340667014E+01 0.52577431133E+01 0.44143945565E+01 0.37859727283E+01 0.34058549188E+01
 0.32795260004E+01 0.34058469129E+01 0.37859291481E+01 0.44142884238E+01 0.52575842850E+01
 0.62339191972E+01 0.71124614107E+01 0.74723591070E+01 0.70260552129E+01 0.58146198364E+01
 0.42418692479E+01 0.29237155395E+01 0.24108988526E+01 0.29234162595E+01 0.62429088140E+01
 0.71178544610E+01 0.74721656782E+01 0.71722123037E+01 0.63783736312E+01 0.54294541820E+01
 0.45653500895E+01 0.38788730162E+01 0.34143616540E+01 0.31829339125E+01 0.31828731405E+01
 0.34142978285E+01 0.38788985738E+01 0.45652891625E+01 0.54291665561E+01 0.63780568856E+01
 0.71721209394E+01 0.74722773564E+01 0.71180563282E+01 0.62432316355E+01 0.52394908103E+01
 0.45785848364E+01 0.45783854450E+01 0.52390860798E+01 0.73120845827E+01 0.74475157446E+01
 0.71124532482E+01 0.63782920877E+01 0.54883085200E+01 0.46447887670E+01 0.39391138272E+01
 0.34225932976E+01 0.31132781478E+01 0.30109790430E+01 0.31133393091E+01 0.34226586072E+01
 0.39391050733E+01 0.46446571356E+01 0.54880685071E+01 0.63780193809E+01 0.71122464502E+01
 0.74474405351E+01 0.73121419239E+01 0.68583812491E+01 0.63879651681E+01 0.61914397658E+01
 0.63878712476E+01 0.68582589904E+01 0.73209918222E+01 0.69184705492E+01 0.62340974024E+01
 0.54293895076E+01 0.46447104959E+01 0.39599463931E+01 0.34275249735E+01 0.30710499628E+01
 0.28943113965E+01 0.28944242940E+01 0.30712318877E+01 0.34275796967E+01 0.39599326764E+01
 0.46447242608E+01 0.54293137727E+01 0.62338367914E+01 0.69181880488E+01 0.73208435129E+01
 0.74118890035E+01 0.73063243690E+01 0.71867852868E+01 0.71868891171E+01 0.73065033284E+01
 0.74120016402E+01 0.65637237566E+01 0.59509949596E+01 0.52578243820E+01 0.45653840629E+01
 0.39390776415E+01 0.34274942725E+01 0.30569528389E+01 0.28354978149E+01 0.27621770589E+01
 0.28355614877E+01 0.30570702262E+01 0.34276425172E+01 0.39392209478E+01 0.45654766823E+01
 0.52578266130E+01 0.59508840202E+01 0.65635143971E+01 0.69964241727E+01 0.72254571398E+01
 0.73076877290E+01 0.73230574283E+01 0.73078274688E+01 0.72256921032E+01 0.69966819365E+01
 0.55505168924E+01 0.49884705461E+01 0.44144136354E+01 0.38789260685E+01 0.34226217887E+01
 0.30710615849E+01 0.28355168938E+01 0.27181219370E+01 0.27180760545E+01 0.28354790447E+01
 0.30711545164E+01 0.34227900467E+01 0.38790708989E+01 0.44145558366E+01 0.49886256424E+01
 0.55505657078E+01 0.60495248767E+01 0.64368372451E+01 0.66827514383E+01 0.67964877440E+01
 0.67965002437E+01 0.66828438716E+01 0.64370265219E+01 0.60496597701E+01 0.46462323579E+01
 0.42068746223E+01 0.37859276453E+01 0.34143447821E+01 0.31132781478E+01 0.28943249960E+01
 0.27622132446E+01 0.27181122349E+01 0.27621285432E+01 0.28942076484E+01 0.31132039190E+01
 0.34143718082E+01 0.37860668724E+01 0.42070840910E+01 0.46464418373E+01 0.50668603105E+01
 0.54313131087E+01 0.57098259177E+01 0.58830921895E+01 0.59416200351E+01 0.58831059885E+01
 0.57098201136E+01 0.54312442034E+01 0.50667096596E+01 0.39640951485E+01 0.36711927874E+01
 0.34058493719E+01 0.31829054860E+01 0.30109370198E+01 0.28943880461E+01 0.28355559408E+01
 0.28355036705E+01 0.28942302968E+01 0.30107074772E+01 0.31827010198E+01 0.34057618688E+01
 0.36712382213E+01 0.39642375428E+01 0.42631669431E+01 0.45420286568E+01 0.47750312774E+01
 0.49413328065E+01 0.50275393772E+01 0.50274991090E+01 0.49412036134E+01 0.47748216691E+01
 0.45417906888E+01 0.42629597986E+01 0.35486603967E+01 0.34025719409E+01 0.32795706272E+01
 0.31829071140E+01 0.31133397654E+01 0.30712011867E+01 0.30570335842E+01 0.30711354375E+01
 0.31132043753E+01 0.31827065667E+01 0.32793331954E+01 0.34023526376E+01 0.35485275372E+01
 0.37098289317E+01 0.38728975329E+01 0.40212043769E+01 0.41388765028E+01 0.42139618334E+01
 0.42396390641E+01 0.42138012058E+01 0.41386195545E+01 0.40209513769E+01 0.38727420336E+01
 0.37098215610E+01 0.34101741787E+01 0.34025727144E+01 0.34058496856E+01 0.34143345746E+01
 0.34227034045E+01 0.34276076250E+01 0.34276452900E+01 0.34227737405E+01 0.34143519340E+01
 0.34057535491E+01 0.34023554104E+01 0.34098833095E+01 0.34315407441E+01 0.34657541227E+01
 0.35063023610E+01 0.35448700504E+01 0.35741925284E+01 0.35897664986E+01 0.35897110619E+01
 0.35740439192E+01 0.35446995340E+01 0.35062313776E+01 0.34658659509E+01 0.34318006018E+01
 0.35486457749E+01 0.36711826762E+01 0.37858840651E+01 0.38788690164E+01 0.39391050733E+01
 0.39599589614E+01 0.39392571335E+01 0.38790943938E+01 0.37860668724E+01 0.36712282584E+01
 0.35485270809E+01 0.34315479328E+01 0.33300561490E+01 0.32484123921E+01 0.31866851310E+01
 0.31433195530E+01 0.31172936094E+01 0.31085575466E+01 0.31172797453E+01 0.31433330948E+01
 0.31867782911E+01 0.32486053878E+01 0.33303117155E+01 0.34317814281E+01 0.39640593343E+01
 0.42068293600E+01 0.44142879133E+01 0.45652556997E+01 0.46446100761E+01 0.46446930492E+01
 0.45654761717E+01 0.44145754261E+01 0.42071017030E+01 0.39642425792E+01 0.37098284212E+01
 0.34657574059E+01 0.32484173187E+01 0.30677812606E+01 0.29290171544E+01 0.28348964032E+01
 0.27872897531E+01 0.27873263592E+01 0.28350102999E+01 0.29292077197E+01 0.30680156133E+01
 0.32486258156E+01 0.34658626677E+01 0.37097853484E+01 0.46461829084E+01 0.49883832199E+01
 0.52576359761E+01 0.54292005295E+01 0.54880618990E+01 0.54292830717E+01 0.52577970354E+01
 0.49886065635E+01 0.46464352292E+01 0.42631724900E+01 0.38729045972E+01 0.35062995882E+01
 0.31866785229E+01 0.29290176649E+01 0.27414682403E+01 0.26278901810E+01 0.25899205691E+01
 0.26280016401E+01 0.27416437053E+01 0.29291820469E+01 0.31867613372E+01 0.35062615350E+01
 0.38727490979E+01 0.42629405874E+01 0.55504919096E+01 0.59509029484E+01 0.62339305683E+01
 0.63781022301E+01 0.63780555799E+01 0.62338561213E+01 0.59508953913E+01 0.55505580000E+01
 0.50668318379E+01 0.45420117389E+01 0.40212157480E+01 0.35448786488E+01 0.31433037658E+01
 0.28348845215E+01 0.26279015521E+01 0.25244624549E+01 0.25244833124E+01 0.26279773193E+01
 0.28349795159E+01 0.31432916888E+01 0.35446901166E+01 0.40209502707E+01 0.45418076068E+01
 0.50667109618E+01 0.65637794169E+01 0.69184524948E+01 0.71124163276E+01 0.71721125154E+01
 0.71122464502E+01 0.69181932004E+01 0.65635505828E+01 0.60495695050E+01 0.54313131087E+01
 0.47750001811E+01 0.41388760465E+01 0.35742208506E+01 0.31172936094E+01 0.27872636931E+01
 0.25899271771E+01 0.25245202329E+01 0.25899423980E+01 0.27872547390E+01 0.31172121013E+01
 0.35740491417E+01 0.41386530544E+01 0.47748102107E+01 0.54312442034E+01 0.60496673802E+01
 0.73211649262E+01 0.74476562354E+01 0.74723358844E+01 0.74722666057E+01 0.74474161877E+01
 0.73207895893E+01 0.69964009501E+01 0.64368795466E+01 0.57098662419E+01 0.49413151308E+01
 0.42139386108E+01 0.35897924939E+01 0.31085851853E+01 0.27873036471E+01 0.26279784174E+01
 0.26280119130E+01 0.27873035110E+01 0.31084491396E+01 0.35896223966E+01 0.42138676125E+01
 0.49413004326E+01 0.57098554787E+01 0.64369842204E+01 0.69967095717E+01 0.73123691271E+01
 0.71181966911E+01 0.70260637760E+01 0.71180903016E+01 0.73121784437E+01 0.74118583025E+01
 0.72253844342E+01 0.66827323594E+01 0.58831287094E+01 0.50275449241E+01 0.42396030005E+01
 0.35897082892E+01 0.31173162652E+01 0.28350108104E+01 0.27416005774E+01 0.28349681448E+01
 0.31172486212E+01 0.35896456192E+01 0.42395796871E+01 0.50275875830E+01 0.58832506790E+01
 0.66829240735E+01 0.72256193976E+01 0.74120945006E+01 0.62432633853E+01 0.58146224902E+01
 0.58145940777E+01 0.62432398502E+01 0.68584545779E+01 0.73063808287E+01 0.73076619703E+01
 0.67964429063E+01 0.59416286923E+01 0.50275193208E+01 0.42137754471E+01 0.35740153878E+01
 0.31433544374E+01 0.29292329678E+01 0.29291562882E+01 0.31432545590E+01 0.35740493510E+01
 0.42138701486E+01 0.50275618243E+01 0.59417023642E+01 0.67966423078E+01 0.73078695802E+01