    1    1    1    1
  0.1987675E+02  0.3040559E-09  0.3040559E-09  0.3040559E-09  0.5000000E-15
  1.000000000000000E-004
  CAR 
 fcc Si                                  
      4     56      6
 
  0.0000000E+00  0.0000000E+00  0.0000000E+00  0.7513148E-03
    1       -5.369416
    2       14.250957
    3       14.251019
    4       14.251020
    5       17.336566
    6       17.336586
 
  0.9090909E-01  0.0000000E+00  0.0000000E+00  0.6010518E-02
    1       -5.177980
    2       12.569072
    3       13.924435
    4       13.924487
    5       17.494076
    6       17.855360
 
  0.1818182E+00  0.0000000E+00  0.0000000E+00  0.6010518E-02
    1       -4.605642
    2        9.663726
    3       13.355809
    4       13.355859
    5       17.306792
    6       18.512654
 
  0.2727273E+00  0.0000000E+00  0.0000000E+00  0.6010518E-02
    1       -3.660350
    2        6.747984
    3       12.900336
    4       12.900384
    5       17.031722
    6       17.937591
 
  0.3636364E+00  0.0000000E+00  0.0000000E+00  0.6010518E-02
    1       -2.365697
    2        4.082144
    3       12.628623
    4       12.628668
    5       16.862088
    6       17.085084
 
  0.4545455E+00  0.0000000E+00  0.0000000E+00  0.6010518E-02
    1       -0.860876
    2        1.882336
    3       12.513909
    4       12.513954
    5       16.574015
    6       16.574283
 
  0.9090909E-01  0.9090909E-01  0.0000000E+00  0.4507889E-02
    1       -5.114148
    2       13.141793
    3       13.141829
    4       13.550474
    5       16.177895
    6       18.750815
 
  0.1818182E+00  0.9090909E-01  0.0000000E+00  0.1803156E-01
    1       -4.668586
    2       10.751992
    3       12.404474
    4       13.294653
    5       16.195019
    6       18.850091
 
  0.2727273E+00  0.9090909E-01  0.0000000E+00  0.1803156E-01
    1       -3.847048
    2        7.837598
    3       11.902027
    4       12.681470
    5       16.267398
    6       18.295091
 
  0.3636364E+00  0.9090909E-01  0.0000000E+00  0.1803156E-01
    1       -2.665323
    2        5.085779
    3       11.682531
    4       12.040546
    5       15.713412
    6       18.219662
 
  0.4545455E+00  0.9090909E-01  0.0000000E+00  0.1803156E-01
    1       -1.190557
    2        2.691686
    3       11.456565
    4       11.746216
    5       15.478440
    6       17.770959
 
 -0.4545455E+00  0.9090909E-01  0.0000000E+00  0.1803156E-01
    1       -0.327415
    2        1.597567
    3       11.004502
    4       12.068535
    5       15.735746
    6       17.259518
 
 -0.3636364E+00  0.9090909E-01  0.0000000E+00  0.1803156E-01
    1       -1.703526
    2        3.436592
    3       10.769302
    4       12.590241
    5       16.432157
    6       17.164137
 
 -0.2727273E+00  0.9090909E-01  0.0000000E+00  0.1803156E-01
    1       -3.097823
    2        5.976536
    3       10.806323
    4       13.225017
    5       17.453133
    6       17.542783
 
 -0.1818182E+00  0.9090909E-01  0.0000000E+00  0.1803156E-01
    1       -4.162286
    2        8.808771
    3       11.141902
    4       13.854902
    5       17.933231
    6       18.154611
 
 -0.9090909E-01  0.9090909E-01  0.0000000E+00  0.9015778E-02
    1       -4.859568
    2       11.582656
    3       11.908865
    4       14.235702
    5       17.713924
    6       17.834993
 
  0.1818182E+00  0.1818182E+00  0.0000000E+00  0.4507889E-02
    1       -4.350557
    2       11.545847
    3       11.545878
    4       11.842240
    5       14.404545
    6       16.938731
 
  0.2727273E+00  0.1818182E+00  0.0000000E+00  0.1803156E-01
    1       -3.655149
    2        9.128574
    3       10.946813
    4       11.317212
    5       14.444042
    6       16.085092
 
  0.3636364E+00  0.1818182E+00  0.0000000E+00  0.1803156E-01
    1       -2.593604
    2        6.393230
    3       10.334880
    4       10.651944
    5       14.146597
    6       17.421321
 
  0.4545455E+00  0.1818182E+00  0.0000000E+00  0.1803156E-01
    1       -1.203912
    2        3.894090
    3        9.394002
    4       10.675316
    5       13.995866
    6       19.218361
 
 -0.4545455E+00  0.1818182E+00  0.0000000E+00  0.1803156E-01
    1        0.163551
    2        2.075461
    3        8.660202
    4       11.007455
    5       14.283301
    6       19.210660
 
 -0.3636364E+00  0.1818182E+00  0.0000000E+00  0.1803156E-01
    1       -0.700595
    2        3.173167
    3        8.211013
    4       11.626685
    5       14.985937
    6       18.820137
 
 -0.2727273E+00  0.1818182E+00  0.0000000E+00  0.1803156E-01
    1       -2.167965
    2        5.551686
    3        8.084782
    4       12.469098
    5       16.055520
    6       18.800768
 
 -0.1818182E+00  0.1818182E+00  0.0000000E+00  0.9015778E-02
    1       -3.344532
    2        8.143294
    3        8.420306
    4       13.371530
    5       17.389201
    6       19.045934
 
  0.2727273E+00  0.2727273E+00  0.0000000E+00  0.4507889E-02
    1       -3.086682
    2        9.404338
    3       10.244293
    4       10.244322
    5       12.941842
    6       14.250203
 
  0.3636364E+00  0.2727273E+00  0.0000000E+00  0.1803156E-01
    1       -2.149545
    2        7.553899
    3        8.905444
    4        9.849395
    5       12.941528
    6       14.454532
 
  0.4545455E+00  0.2727273E+00  0.0000000E+00  0.1803156E-01
    1       -0.868674
    2        5.298733
    3        7.470142
    4        9.780413
    5       12.838834
    6       16.567895
 
 -0.4545455E+00  0.2727273E+00  0.0000000E+00  0.1803156E-01
    1        0.611069
    2        3.251106
    3        6.443604
    4       10.036936
    5       13.079683
    6       19.082229
 
 -0.3636364E+00  0.2727273E+00  0.0000000E+00  0.1803156E-01
    1        0.576513
    2        3.326160
    3        5.787081
    4       10.607932
    5       13.718850
    6       21.078036
 
 -0.2727273E+00  0.2727273E+00  0.0000000E+00  0.9015778E-02
    1       -0.897240
    2        5.413046
    3        5.571120
    4       11.456831
    5       14.732966
    6       20.469194
 
  0.3636364E+00  0.3636364E+00  0.0000000E+00  0.4507889E-02
    1       -1.338680
    2        6.471763
    3        9.350527
    4        9.350555
    5       11.935012
    6       12.711567
 
  0.4545455E+00  0.3636364E+00  0.0000000E+00  0.1803156E-01
    1       -0.179209
    2        5.035016
    3        7.692727
    4        9.177973
    5       12.054750
    6       13.624861
 
 -0.4545455E+00  0.3636364E+00  0.0000000E+00  0.1803156E-01
    1        1.241841
    2        3.817510
    3        5.599611
    4        9.336596
    5       12.238521
    6       16.120230
 
 -0.3636364E+00  0.3636364E+00  0.0000000E+00  0.9015778E-02
    1        1.814159
    2        3.625831
    3        4.235208
    4        9.820977
    5       12.792448
    6       18.956820
 
  0.4545455E+00  0.4545455E+00  0.0000000E+00  0.4507889E-02
    1        0.846308
    2        3.574306
    3        8.898797
    4        8.898825
    5       11.429671
    6       12.038820
 
 -0.4545455E+00  0.4545455E+00  0.0000000E+00  0.9015778E-02
    1        1.885674
    2        2.645054
    3        7.393600
    4        8.951924
    5       11.762895
    6       13.356622
 
  0.2727273E+00  0.1818182E+00  0.9090909E-01  0.1803156E-01
    1       -4.098088
    2        9.861717
    3       10.202049
    4       13.122865
    5       16.172571
    6       17.608045
 
  0.3636364E+00  0.1818182E+00  0.9090909E-01  0.3606311E-01
    1       -3.156225
    2        7.177176
    3        9.601343
    4       12.347051
    5       16.226937
    6       17.865416
 
  0.4545455E+00  0.1818182E+00  0.9090909E-01  0.3606311E-01
    1       -1.866194
    2        4.547940
    3        9.444056
    4       11.458198
    5       15.915357
    6       17.741928
 
 -0.4545455E+00  0.1818182E+00  0.9090909E-01  0.3606311E-01
    1       -0.367479
    2        2.362439
    3        9.492485
    4       10.839333
    5       15.859668
    6       17.174619
 
  0.3636364E+00  0.2727273E+00  0.9090909E-01  0.1803156E-01
    1       -2.839005
    2        8.308856
    3        8.826557
    4       10.689393
    5       14.809597
    6       15.424994
 
  0.4545455E+00  0.2727273E+00  0.9090909E-01  0.3606311E-01
    1       -1.665815
    2        5.930096
    3        8.205983
    4        9.685915
    5       14.831520
    6       17.013103
 
 -0.4545455E+00  0.2727273E+00  0.9090909E-01  0.3606311E-01
    1       -0.204240
    2        3.613295
    3        7.738103
    4        9.254609
    5       14.923298
    6       18.726517
 
 -0.3636364E+00  0.2727273E+00  0.9090909E-01  0.3606311E-01
    1        0.639627
    2        2.556470
    3        7.209543
    4        9.537959
    5       15.351120
    6       18.558681
 
 -0.2727273E+00  0.2727273E+00  0.9090909E-01  0.3606311E-01
    1       -0.721544
    2        4.373754
    3        6.888290
    4       10.276172
    5       16.062975
    6       18.324093
 
 -0.1818182E+00  0.2727273E+00  0.9090909E-01  0.1803156E-01
    1       -2.101248
    2        6.729672
    3        7.005785
    4       11.310599
    5       16.851167
    6       17.951505
 
  0.4545455E+00  0.3636364E+00  0.9090909E-01  0.1803156E-01
    1       -1.100425
    2        6.381424
    3        7.886632
    4        8.557667
    5       13.859666
    6       14.209732
 
 -0.4545455E+00  0.3636364E+00  0.9090909E-01  0.3606311E-01
    1        0.266811
    2        4.821050
    3        6.284512
    4        8.212751
    5       14.057437
    6       16.386759
 
 -0.3636364E+00  0.3636364E+00  0.9090909E-01  0.3606311E-01
    1        1.564371
    2        3.393823
    3        5.177864
    4        8.531774
    5       14.435195
    6       18.997841
 
 -0.2727273E+00  0.3636364E+00  0.9090909E-01  0.1803156E-01
    1        0.693000
    2        4.555634
    3        4.600904
    4        9.243018
    5       15.146225
    6       20.407005
 
 -0.4545455E+00  0.4545455E+00  0.9090909E-01  0.1803156E-01
    1        1.059103
    2        3.756124
    3        7.412433
    4        7.764173
    5       13.380061
    6       13.655113
 
 -0.3636364E+00  0.4545455E+00  0.9090909E-01  0.1803156E-01
    1        2.148170
    2        3.135909
    3        5.524862
    4        7.889566
    5       13.802490
    6       16.166268
 
 -0.4545455E+00  0.3636364E+00  0.1818182E+00  0.1803156E-01
    1       -0.399387
    2        5.594655
    3        6.045117
    4        8.400857
    5       16.683935
    6       17.074413
 
 -0.3636364E+00  0.3636364E+00  0.1818182E+00  0.3606311E-01
    1        1.060377
    2        3.736272
    3        5.905699
    4        7.597965
    5       16.807543
    6       18.370666
 
 -0.3636364E+00  0.4545455E+00  0.1818182E+00  0.1803156E-01
    1        1.640547
    2        4.167395
    3        5.562122
    4        6.501978
    5       16.416271
    6       16.623930
 
 -0.2727273E+00  0.4545455E+00  0.1818182E+00  0.1803156E-01
    1        2.228629
    2        4.112468
    3        4.464663
    4        6.610058
    5       16.866198
    6       19.039178
