    3    3   10    1
  0.1667104E+03  0.7937700E-09  0.1122560E-08  0.7937700E-09  0.5000000E-15
  1.000000000000000E-004
  CAR 
 unknown system                          
      8      1      8
 
  0.0000000E+00  0.0000000E+00  0.0000000E+00  0.1000000E+01
    1      -25.112042
    2      -12.913838
    3       -9.084052
    4       -7.019932
    5       -1.069829
    6        1.093630
    7        1.247167
    8        1.746960
