       N       E                     dE             d eps       ncg     rms          rms(c)
DAV:   1    -0.142232621947E+02   -0.14223E+02   -0.54710E-01    16   0.613E+00    0.788E-01
DAV:   2    -0.142076253232E+02    0.15637E-01   -0.74691E-02    24   0.182E+00    0.256E-01
DAV:   3    -0.142071409863E+02    0.48434E-03   -0.82525E-04    24   0.229E-01    0.145E-01
DAV:   4    -0.142069727259E+02    0.16826E-03   -0.42336E-04    24   0.232E-01    0.181E-02
DAV:   5    -0.142070582971E+02   -0.85571E-04   -0.11886E-04    16   0.802E-02
   1 F= -.14207058E+02 E0= -.14207058E+02  d E =-.142071E+02
       N       E                     dE             d eps       ncg     rms          rms(c)
DAV:   1    -0.142012668658E+02    0.57059E-02   -0.25121E+00    16   0.145E+01    0.926E-01
DAV:   2    -0.141874427929E+02    0.13824E-01   -0.92512E-02    32   0.221E+00    0.362E-01
DAV:   3    -0.141873912786E+02    0.51514E-04   -0.12680E-03    24   0.364E-01    0.189E-01
DAV:   4    -0.141878444349E+02   -0.45316E-03   -0.72757E-04    24   0.294E-01    0.236E-02
DAV:   5    -0.141879963480E+02   -0.15191E-03   -0.10312E-04    24   0.915E-02    0.120E-02
DAV:   6    -0.141880998746E+02   -0.10353E-03   -0.12471E-05    32   0.276E-02    0.466E-03
DAV:   7    -0.141881888067E+02   -0.88932E-04   -0.11024E-05    32   0.189E-02
   2 F= -.14188189E+02 E0= -.14188189E+02  d E =0.188695E-01
       N       E                     dE             d eps       ncg     rms          rms(c)
DAV:   1    -0.142265494167E+02   -0.38450E-01   -0.82623E-01    16   0.839E+00    0.477E-01
DAV:   2    -0.142230430549E+02    0.35064E-02   -0.22738E-02    32   0.120E+00    0.211E-01
DAV:   3    -0.142230200136E+02    0.23041E-04   -0.12029E-03    32   0.295E-01    0.990E-02
DAV:   4    -0.142231522844E+02   -0.13227E-03   -0.41145E-04    24   0.177E-01    0.295E-02
DAV:   5    -0.142231825344E+02   -0.30250E-04   -0.12536E-04    24   0.843E-02
   3 F= -.14223183E+02 E0= -.14223183E+02  d E =-.349937E-01
       N       E                     dE             d eps       ncg     rms          rms(c)
DAV:   1    -0.142234716353E+02   -0.31935E-03   -0.71778E-03    24   0.811E-01    0.381E-02
DAV:   2    -0.142234694580E+02    0.21773E-05   -0.14564E-04    32   0.102E-01
   4 F= -.14223469E+02 E0= -.14223469E+02  d E =-.286924E-03
