 vasp.5.3.5 31Mar14 (build Dec 17 2014 13:12:56) complex                        
  
 executed on         LinuxIFC_ath date 2015.06.29  14:57:20
 serial version


--------------------------------------------------------------------------------------------------------


 INCAR:
 POTCAR:    PAW_PBE O 08Apr2002                   
 POTCAR:    PAW_PBE H 15Jun2001                   
 POTCAR:    PAW_PBE O 08Apr2002                   
   VRHFIN =O: s2p4                                                              
   LEXCH  = PE                                                                  
   EATOM  =   432.3788 eV,   31.7789 Ry                                         
                                                                                
   TITEL  = PAW_PBE O 08Apr2002                                                 
   LULTRA =        F    use ultrasoft PP ?                                      
   IUNSCR =        1    unscreen: 0-lin 1-nonlin 2-no                           
   RPACOR =    1.200    partial core radius                                     
   POMASS =   16.000; ZVAL   =    6.000    mass and valenz                      
   RCORE  =    1.520    outmost cutoff radius                                   
   RWIGS  =    1.550; RWIGS  =    0.820    wigner-seitz radius (au A)           
   ENMAX  =  400.000; ENMIN  =  300.000 eV                                      
   ICORE  =        2    local potential                                         
   LCOR   =        T    correct aug charges                                     
   LPAW   =        T    paw PP                                                  
   EAUG   =  605.392                                                            
   DEXC   =    0.000                                                            
   RMAX   =    1.553    core radius for proj-oper                               
   RAUG   =    1.300    factor for augmentation sphere                          
   RDEP   =    1.550    radius for radial grids                                 
   RDEPT  =    1.329    core radius for aug-charge                              
                                                                                
   Atomic configuration                                                         
    4 entries                                                                   
     n  l   j            E        occ.                                          
     1  0  0.50      -514.6923   2.0000                                         
     2  0  0.50       -23.9615   2.0000                                         
     2  1  0.50        -9.0305   4.0000                                         
     3  2  1.50        -9.5241   0.0000                                         
   Description                                                                  
     l       E           TYP  RCUT    TYP  RCUT                                 
     0    -23.9615318     23  1.200                                             
     0     -9.5240782     23  1.200                                             
     1     -9.0304911     23  1.520                                             
     1      8.1634956     23  1.520                                             
     2     -9.5240782      7  1.500                                             
  local pseudopotential read in
  partial core-charges read in
  partial kinetic energy density read in
  kinetic energy density of atom read in
  atomic valenz-charges read in
  non local Contribution for L=           0  read in
    real space projection operators read in
  non local Contribution for L=           0  read in
    real space projection operators read in
  non local Contribution for L=           1  read in
    real space projection operators read in
  non local Contribution for L=           1  read in
    real space projection operators read in
    PAW grid and wavefunctions read in
 
   number of l-projection  operators is LMAX  =           4
   number of lm-projection operators is LMMAX =           8
 
 POTCAR:    PAW_PBE H 15Jun2001                   
   VRHFIN =H: ultrasoft test                                                    
   LEXCH  = PE                                                                  
   EATOM  =    12.4884 eV,    0.9179 Ry                                         
                                                                                
   TITEL  = PAW_PBE H 15Jun2001                                                 
   LULTRA =        F    use ultrasoft PP ?                                      
   IUNSCR =        0    unscreen: 0-lin 1-nonlin 2-no                           
   RPACOR =    0.000    partial core radius                                     
   POMASS =    1.000; ZVAL   =    1.000    mass and valenz                      
   RCORE  =    1.100    outmost cutoff radius                                   
   RWIGS  =    0.700; RWIGS  =    0.370    wigner-seitz radius (au A)           
   ENMAX  =  250.000; ENMIN  =  200.000 eV                                      
   RCLOC  =    0.701    cutoff for local pot                                    
   LCOR   =        T    correct aug charges                                     
   LPAW   =        T    paw PP                                                  
   EAUG   =  400.000                                                            
   RMAX   =    1.123    core radius for proj-oper                               
   RAUG   =    1.200    factor for augmentation sphere                          
   RDEP   =    1.112    radius for radial grids                                 
   RDEPT  =    0.926    core radius for aug-charge                              
                                                                                
   Atomic configuration                                                         
    2 entries                                                                   
     n  l   j            E        occ.                                          
     1  0  0.50        -6.4927   1.0000                                         
     2  1  0.50        -3.4015   0.0000                                         
   Description                                                                  
     l       E           TYP  RCUT    TYP  RCUT                                 
     0     -6.4927494     23  1.100                                             
     0      6.8029130     23  1.100                                             
     1     -4.0817478     23  1.100                                             
  local pseudopotential read in
  atomic valenz-charges read in
  non local Contribution for L=           0  read in
    real space projection operators read in
  non local Contribution for L=           0  read in
    real space projection operators read in
  non local Contribution for L=           1  read in
    real space projection operators read in
    PAW grid and wavefunctions read in
 
   number of l-projection  operators is LMAX  =           3
   number of lm-projection operators is LMMAX =           5
 
  PAW_PBE O 08Apr2002                   :
 energy of atom  1       EATOM= -432.3788
 kinetic energy error for atom=    0.1156 (will be added to EATOM!!)
  PAW_PBE H 15Jun2001                   :
 energy of atom  2       EATOM=  -12.4884
 kinetic energy error for atom=    0.0098 (will be added to EATOM!!)
 
 
 POSCAR: H2O                                     
  positions in cartesian coordinates
  No initial velocities read in
 exchange correlation table for  LEXCH =        8
   RHO(1)=    0.500       N(1)  =     2000
   RHO(2)=  100.500       N(2)  =     4000
 


--------------------------------------------------------------------------------------------------------


 ion  position               nearest neighbor table
   1  0.000  0.000  0.000-   2 0.95   3 0.95
   2  0.073  0.905  0.095-   1 0.95
   3  0.073  0.095  0.905-   1 0.95
 
  LATTYP: Found a simple cubic cell.
 ALAT       =     7.9377000000
  
  Lattice vectors:
  
 A1 = (   7.9377000000,   0.0000000000,   0.0000000000)
 A2 = (   0.0000000000,  -7.9377000000,   0.0000000000)
 A3 = (   0.0000000000,   0.0000000000,  -7.9377000000)


Analysis of symmetry for initial positions (statically):
=====================================================================
 Subroutine PRICEL returns:
 Original cell was already a primitive cell.
 

 Routine SETGRP: Setting up the symmetry group for a 
 simple cubic supercell.


 Subroutine GETGRP returns: Found  4 space group operations
 (whereof  4 operations were pure point group operations)
 out of a pool of 48 trial point group operations.


The static configuration has the point symmetry C_2v.


Analysis of symmetry for dynamics (positions and initial velocities):
=====================================================================
 Subroutine PRICEL returns:
 Original cell was already a primitive cell.
 

 Routine SETGRP: Setting up the symmetry group for a 
 simple cubic supercell.


 Subroutine GETGRP returns: Found  4 space group operations
 (whereof  4 operations were pure point group operations)
 out of a pool of 48 trial point group operations.


The dynamic configuration has the point symmetry C_2v.


Analysis of constrained symmetry for selective dynamics:
=====================================================================
 Subroutine PRICEL returns:
 Original cell was already a primitive cell.
 

 Routine SETGRP: Setting up the symmetry group for a 
 simple cubic supercell.


 Subroutine GETGRP returns: Found  2 space group operations
 (whereof  2 operations were pure point group operations)
 out of a pool of 48 trial point group operations.


The constrained configuration has the point symmetry C_2 .
 
 
 KPOINTS: Gamma-point only                        
  k-points in reciprocal lattice
Space group operators:
 irot       det(A)        alpha          n_x          n_y          n_z        tau_x        tau_y        tau_z
    1     1.000000     0.000001     1.000000     0.000000     0.000000     0.000000     0.000000     0.000000
    2     1.000000   180.000000     1.000000     0.000000     0.000000     0.000000     0.000000     0.000000


--------------------------------------------------------------------------------------------------------




 Dimension of arrays:
   k-points           NKPTS =      1   k-points in BZ     NKDIM =      1   number of bands    NBANDS=      8
   number of dos      NEDOS =    301   number of ions     NIONS =      3
   non local maximal  LDIM  =      4   non local SUM 2l+1 LMDIM =      8
   total plane-waves  NPLWV =  89600
   max r-space proj   IRMAX =      1   max aug-charges    IRDMAX=   2524
   dimension x,y,z NGX =    40 NGY =   56 NGZ =   40
   dimension x,y,z NGXF=    80 NGYF=  112 NGZF=   80
   support grid    NGXF=    80 NGYF=  112 NGZF=   80
   ions per type =               1   2
 NGX,Y,Z   is equivalent  to a cutoff of   8.38,  8.29,  8.38 a.u.
 NGXF,Y,Z  is equivalent  to a cutoff of  16.76, 16.59, 16.76 a.u.


 I would recommend the setting:
   dimension x,y,z NGX =    39 NGY =   55 NGZ =   39
 SYSTEM =  unknown system                          
 POSCAR =  H2O                                     

 Startparameter for this run:
   NWRITE =      2    write-flag & timer
   PREC   = normal    normal or accurate (medium, high low for compatibility)
   ISTART =      1    job   : 0-new  1-cont  2-samecut
   ICHARG =      0    charge: 1-file 2-atom 10-const
   ISPIN  =      1    spin polarized calculation?
   LNONCOLLINEAR =      F non collinear calculations
   LSORBIT =      F    spin-orbit coupling
   INIWAV =      1    electr: 0-lowe 1-rand  2-diag
   LASPH  =      F    aspherical Exc in radial PAW
   METAGGA=      F    non-selfconsistent MetaGGA calc.

 Electronic Relaxation 1
   ENCUT  =  400.0 eV  29.40 Ry    5.42 a.u.  12.94 18.31 12.94*2*pi/ulx,y,z
   ENINI  =  400.0     initial cutoff
   ENAUG  =  605.4 eV  augmentation charge cutoff
   NELM   =     60;   NELMIN=  2; NELMDL=  0     # of ELM steps 
   EDIFF  = 0.1E-03   stopping-criterion for ELM
   LREAL  =      F    real-space projection
   NLSPLINE    = F    spline interpolate recip. space projectors
   LCOMPAT=      F    compatible to vasp.4.4
   GGA_COMPAT  = T    GGA compatible to vasp.4.4-vasp.4.6
   LMAXPAW     = -100 max onsite density
   LMAXMIX     =    2 max onsite mixed and CHGCAR
   VOSKOWN=      0    Vosko Wilk Nusair interpolation
   ROPT   =    0.00000   0.00000
 Ionic relaxation
   EDIFFG = -.2E-01   stopping-criterion for IOM
   NSW    =     10    number of steps for IOM
   NBLOCK =      1;   KBLOCK =     10    inner block; outer block 
   IBRION =      1    ionic relax: 0-MD 1-quasi-New 2-CG
   NFREE  =      2    steps in history (QN), initial steepest desc. (CG)
   ISIF   =      2    stress and relaxation
   IWAVPR =     11    prediction:  0-non 1-charg 2-wave 3-comb
   ISYM   =      2    0-nonsym 1-usesym 2-fastsym
   LCORR  =      T    Harris-Foulkes like correction to forces

   POTIM  = 0.5000    time-step for ionic-motion
   TEIN   =    0.0    initial temperature
   TEBEG  =    0.0;   TEEND  =   0.0 temperature during run
   SMASS  =  -3.00    Nose mass-parameter (am)
   estimated Nose-frequenzy (Omega)   =  0.10E-29 period in steps =****** mass=  -0.144E-26a.u.
   SCALEE = 1.0000    scale energy and forces
   NPACO  =    256;   APACO  = 16.0  distance and # of slots for P.C.
   PSTRESS=    0.0 pullay stress

  Mass of Ions in am
   POMASS =  16.00  1.00
  Ionic Valenz
   ZVAL   =   6.00  1.00
  Atomic Wigner-Seitz radii
   RWIGS  =  -1.00 -1.00
  virtual crystal weights 
   VCA    =   1.00  1.00
   NELECT =       8.0000    total number of electrons
   NUPDOWN=      -1.0000    fix difference up-down

 DOS related values:
   EMIN   =  10.00;   EMAX   =400.00  energy-range for DOS
   EFERMI =   0.00
   ISMEAR =     0;   SIGMA  =   0.10  broadening in eV -4-tet -1-fermi 0-gaus

 Electronic relaxation 2 (details)
   IALGO  =     38    algorithm
   LDIAG  =      T    sub-space diagonalisation (order eigenvalues)
   LSUBROT=      F    optimize rotation matrix (better conditioning)
   TURBO    =      0    0=normal 1=particle mesh
   IRESTART =      0    0=no restart 2=restart with 2 vectors
   NREBOOT  =      0    no. of reboots
   NMIN     =      0    reboot dimension
   EREF     =   0.00    reference energy to select bands
   IMIX   =      4    mixing-type and parameters
     AMIX     =   0.40;   BMIX     =  1.00
     AMIX_MAG =   1.60;   BMIX_MAG =  1.00
     AMIN     =   0.10
     WC   =   100.;   INIMIX=   1;  MIXPRE=   1;  MAXMIX= -45

 Intra band minimization:
   WEIMIN = 0.0010     energy-eigenvalue tresh-hold
   EBREAK =  0.31E-05  absolut break condition
   DEPER  =   0.30     relativ break condition  

   TIME   =   0.40     timestep for ELM

  volume/ion in A,a.u.               =     166.71      1125.02
  Fermi-wavevector in a.u.,A,eV,Ry     =   0.412487  0.779487  2.314969  0.170145
  Thomas-Fermi vector in A             =   1.369490
 
 Write flags
   LWAVE  =      T    write WAVECAR
   LCHARG =      T    write CHGCAR
   LVTOT  =      F    write LOCPOT, total local potential
   LVHAR  =      F    write LOCPOT, Hartree potential only
   LELF   =      F    write electronic localiz. function (ELF)
   LORBIT =      0    0 simple, 1 ext, 2 COOP (PROOUT)


 Dipole corrections
   LMONO  =      F    monopole corrections only (constant potential shift)
   LDIPOL =      F    correct potential (dipole corrections)
   IDIPOL =      0    1-x, 2-y, 3-z, 4-all directions 
   EPSILON=  1.0000000 bulk dielectric constant

 Exchange correlation treatment:
   GGA     =    --    GGA type
   LEXCH   =     8    internal setting for exchange type
   VOSKOWN=      0    Vosko Wilk Nusair interpolation
   LHFCALC =     F    Hartree Fock is set to
   LHFONE  =     F    Hartree Fock one center treatment
   AEXX    =    0.0000 exact exchange contribution

 Linear response parameters
   LEPSILON=     F    determine dielectric tensor
   LRPA    =     F    only Hartree local field effects (RPA)
   LNABLA  =     F    use nabla operator in PAW spheres
   LVEL    =     F    velocity operator in full k-point grid
   LINTERFAST=   F  fast interpolation
   KINTER  =     0    interpolate to denser k-point grid
   CSHIFT  =0.1000    complex shift for real part using Kramers Kronig
   OMEGAMAX=  -1.0    maximum frequency
   DEG_THRESHOLD= 0.2000000E-02 threshold for treating states as degnerate
   RTIME   =    0.100 relaxation time in fs

 Orbital magnetization related:
   ORBITALMAG=     F  switch on orbital magnetization
   LCHIMAG   =     F  perturbation theory with respect to B field
   DQ        =  0.001000  dq finite difference perturbation B field



--------------------------------------------------------------------------------------------------------


 quasi-Newton-method for relaxation of ions
   using selective dynamics as specified on POSCAR
   WARNING: If single coordinates had been selected the selection of coordinates
            is made according to the corresponding   d i r e c t   coordinates!
            Don't support selection of single cartesian coordinates -- sorry ...
  !
 charge density and potential will be updated during run
 non-spin polarized calculation
 Variant of blocked Davidson
 Davidson routine will perform the subspace rotation
 perform sub-space diagonalisation
    after iterative eigenvector-optimisation
 modified Broyden-mixing scheme, WC =      100.0
 initial mixing is a Kerker type mixing with AMIX =  0.4000 and BMIX =      1.0000
 Hartree-type preconditioning will be used
 using additional bands            4
 reciprocal scheme for non local part
 use partial core corrections
 calculate Harris-corrections to forces 
   (improved forces if not selfconsistent)
 use gradient corrections 
 use of overlap-Matrix (Vanderbilt PP)
 Gauss-broadening in eV      SIGMA  =   0.10


--------------------------------------------------------------------------------------------------------


  energy-cutoff  :      400.00
  volume of cell :      500.13
      direct lattice vectors                 reciprocal lattice vectors
     7.937700000  0.000000000  0.000000000     0.125981078  0.000000000  0.000000000
     0.000000000  7.937700000  7.937700000     0.000000000  0.125981078  0.000000000
     0.000000000  0.000000000  7.937700000     0.000000000 -0.125981078  0.125981078

  length of vectors
     7.937700000 11.225602994  7.937700000     0.125981078  0.125981078  0.178164149


 
 old parameters found on file WAVECAR:
  energy-cutoff  :      400.00
  volume of cell :      500.13
      direct lattice vectors                 reciprocal lattice vectors
     7.937700000  0.000000000  0.000000000     0.125981078  0.000000000  0.000000000
     0.000000000  7.937700000  7.937700000     0.000000000  0.125981078  0.000000000
     0.000000000  0.000000000  7.937700000     0.000000000 -0.125981078  0.125981078

  length of vectors

 
 k-points in units of 2pi/SCALE and weight: Gamma-point only                        
   0.00000000  0.00000000  0.00000000       1.000
 
 k-points in reciprocal lattice and weights: Gamma-point only                        
   0.00000000  0.00000000  0.00000000       1.000
 
 position of ions in fractional coordinates (direct lattice) 
   0.00000000  0.00000000  0.00000000
   0.07333333  0.90466667  0.09533333
   0.07333333  0.09533333  0.90466667
 
 position of ions in cartesian coordinates  (Angst):
   0.00000000  0.00000000  0.00000000
   0.58209800  7.18097260  7.93770000
   0.58209800  0.75672740  7.93770000
 


--------------------------------------------------------------------------------------------------------


 k-point  1 :   0.0000 0.0000 0.0000  plane waves:    9045

 maximum number of plane-waves:      9045
 maximum index in each direction: 
   IXMAX=   12   IYMAX=   18   IZMAX=   12
   IXMIN=  -12   IYMIN=  -18   IZMIN=  -12

 WARNING: aliasing errors must be expected set NGX to  50 to avoid them
 WARNING: aliasing errors must be expected set NGY to  74 to avoid them
 WARNING: aliasing errors must be expected set NGZ to  50 to avoid them
 aliasing errors are usually negligible using standard VASP settings
 and one can safely disregard these warnings

 total amount of memory used by VASP on root node    77237. kBytes
========================================================================

   base      :      30000. kBytes
   nonl-proj :       1591. kBytes
   grid      :      44477. kBytes
   one-center:          9. kBytes
   wavefun   :       1160. kBytes
 
     INWAV:  cpu time    0.01: real time    0.01
 Broyden mixing: mesh for mixing (old mesh)
   NGX = 25   NGY = 37   NGZ = 25
  (NGX  = 80   NGY  =112   NGZ  = 80)
  gives a total of  23125 points

 charge density for first step will be calculated from the start-wavefunctions


--------------------------------------------------------------------------------------------------------


 Maximum index for augmentation-charges         2265 (set IRDMAX)


--------------------------------------------------------------------------------------------------------


 initial charge from wavefunction
 First call to EWALD:  gamma=   0.223
 Maximum number of real-space cells 3x 3x 4
 Maximum number of reciprocal cells 3x 4x 3

    FEWALD:  cpu time    0.00: real time    0.00


----------------------------------------- Iteration    1(   1)  ---------------------------------------


    POTLOK:  cpu time    0.89: real time    0.90
    SETDIJ:  cpu time    0.01: real time    0.01
     EDDAV:  cpu time    0.31: real time    0.32
       DOS:  cpu time    0.00: real time    0.00
    CHARGE:  cpu time    0.11: real time    0.11
    MIXING:  cpu time    0.03: real time    0.03
    --------------------------------------------
      LOOP:  cpu time    1.36: real time    1.40

 eigenvalue-minimisations  :    16
 total energy-change (2. order) :-0.1422326E+02  (-0.5471035E-01)
 number of electron       8.0000000 magnetization 
 augmentation part        0.7075268 magnetization 

 Broyden mixing:
  rms(total) = 0.78781E-01    rms(broyden)= 0.78694E-01
  rms(prec ) = 0.11412E+00
  weight for this iteration     100.00

 Free energy of the ion-electron system (eV)
  ---------------------------------------------------
  alpha Z        PSCENC =         0.44838482
  Ewald energy   TEWEN  =        26.60306768
  -Hartree energ DENC   =      -418.77783075
  -exchange      EXHF   =         0.00000000
  -V(xc)+E(xc)   XCENC  =        34.01755364
  PAW double counting   =       562.69760983     -564.75946230
  entropy T*S    EENTRO =         0.00000000
  eigenvalues    EBANDS =      -111.67304648
  atomic energy  EATOM  =       457.22046137
  ---------------------------------------------------
  free energy    TOTEN  =       -14.22326219 eV

  energy without entropy =      -14.22326219  energy(sigma->0) =      -14.22326219


--------------------------------------------------------------------------------------------------------




----------------------------------------- Iteration    1(   2)  ---------------------------------------


    POTLOK:  cpu time    0.89: real time    0.90
    SETDIJ:  cpu time    0.01: real time    0.01
     EDDAV:  cpu time    0.41: real time    0.41
       DOS:  cpu time    0.00: real time    0.00
    CHARGE:  cpu time    0.11: real time    0.11
    MIXING:  cpu time    0.03: real time    0.03
    --------------------------------------------
      LOOP:  cpu time    1.46: real time    1.47

 eigenvalue-minimisations  :    24
 total energy-change (2. order) : 0.1563687E-01  (-0.7469147E-02)
 number of electron       8.0000000 magnetization 
 augmentation part        0.6968598 magnetization 

 Broyden mixing:
  rms(total) = 0.25610E-01    rms(broyden)= 0.25541E-01
  rms(prec ) = 0.32455E-01
  weight for this iteration     100.00

 eigenvalues of (default mixing * dielectric matrix)
  average eigenvalue GAMMA=   1.0623
  1.0623

 Free energy of the ion-electron system (eV)
  ---------------------------------------------------
  alpha Z        PSCENC =         0.44838482
  Ewald energy   TEWEN  =        26.60306768
  -Hartree energ DENC   =      -420.92331125
  -exchange      EXHF   =         0.00000000
  -V(xc)+E(xc)   XCENC  =        34.13388827
  PAW double counting   =       569.01399301     -571.10239231
  entropy T*S    EENTRO =         0.00000000
  eigenvalues    EBANDS =      -109.60171692
  atomic energy  EATOM  =       457.22046137
  ---------------------------------------------------
  free energy    TOTEN  =       -14.20762532 eV

  energy without entropy =      -14.20762532  energy(sigma->0) =      -14.20762532


--------------------------------------------------------------------------------------------------------




----------------------------------------- Iteration    1(   3)  ---------------------------------------


    POTLOK:  cpu time    0.86: real time    0.86
    SETDIJ:  cpu time    0.01: real time    0.01
     EDDAV:  cpu time    0.40: real time    0.40
       DOS:  cpu time    0.00: real time    0.00
    CHARGE:  cpu time    0.11: real time    0.11
    MIXING:  cpu time    0.03: real time    0.03
    --------------------------------------------
      LOOP:  cpu time    1.42: real time    1.42

 eigenvalue-minimisations  :    24
 total energy-change (2. order) : 0.4843369E-03  (-0.8252518E-04)
 number of electron       8.0000000 magnetization 
 augmentation part        0.6960850 magnetization 

 Broyden mixing:
  rms(total) = 0.14487E-01    rms(broyden)= 0.14482E-01
  rms(prec ) = 0.18282E-01
  weight for this iteration     100.00

 eigenvalues of (default mixing * dielectric matrix)
  average eigenvalue GAMMA=   1.7096
  1.0795  2.3398

 Free energy of the ion-electron system (eV)
  ---------------------------------------------------
  alpha Z        PSCENC =         0.44838482
  Ewald energy   TEWEN  =        26.60306768
  -Hartree energ DENC   =      -421.18367688
  -exchange      EXHF   =         0.00000000
  -V(xc)+E(xc)   XCENC  =        34.14535232
  PAW double counting   =       570.75223283     -572.83903394
  entropy T*S    EENTRO =         0.00000000
  eigenvalues    EBANDS =      -109.35392917
  atomic energy  EATOM  =       457.22046137
  ---------------------------------------------------
  free energy    TOTEN  =       -14.20714099 eV

  energy without entropy =      -14.20714099  energy(sigma->0) =      -14.20714099


--------------------------------------------------------------------------------------------------------




----------------------------------------- Iteration    1(   4)  ---------------------------------------


    POTLOK:  cpu time    0.84: real time    0.84
    SETDIJ:  cpu time    0.01: real time    0.01
     EDDAV:  cpu time    0.41: real time    0.41
       DOS:  cpu time    0.00: real time    0.00
    CHARGE:  cpu time    0.11: real time    0.11
    MIXING:  cpu time    0.03: real time    0.03
    --------------------------------------------
      LOOP:  cpu time    1.40: real time    1.40

 eigenvalue-minimisations  :    24
 total energy-change (2. order) : 0.1682604E-03  (-0.4233572E-04)
 number of electron       8.0000000 magnetization 
 augmentation part        0.6963253 magnetization 

 Broyden mixing:
  rms(total) = 0.18116E-02    rms(broyden)= 0.18099E-02
  rms(prec ) = 0.35001E-02
  weight for this iteration     100.00

 eigenvalues of (default mixing * dielectric matrix)
  average eigenvalue GAMMA=   1.6434
  2.3687  1.1289  1.4324

 Free energy of the ion-electron system (eV)
  ---------------------------------------------------
  alpha Z        PSCENC =         0.44838482
  Ewald energy   TEWEN  =        26.60306768
  -Hartree energ DENC   =      -421.33748120
  -exchange      EXHF   =         0.00000000
  -V(xc)+E(xc)   XCENC  =        34.15006209
  PAW double counting   =       572.38504851     -574.46757191
  entropy T*S    EENTRO =         0.00000000
  eigenvalues    EBANDS =      -109.20894409
  atomic energy  EATOM  =       457.22046137
  ---------------------------------------------------
  free energy    TOTEN  =       -14.20697273 eV

  energy without entropy =      -14.20697273  energy(sigma->0) =      -14.20697273


--------------------------------------------------------------------------------------------------------




----------------------------------------- Iteration    1(   5)  ---------------------------------------


    POTLOK:  cpu time    0.85: real time    0.86
    SETDIJ:  cpu time    0.01: real time    0.01
     EDDAV:  cpu time    0.32: real time    0.32
       DOS:  cpu time    0.00: real time    0.00
    --------------------------------------------
      LOOP:  cpu time    1.18: real time    1.19

 eigenvalue-minimisations  :    16
 total energy-change (2. order) :-0.8557124E-04  (-0.1188604E-04)
 number of electron       8.0000000 magnetization 
 augmentation part        0.6963253 magnetization 

 Free energy of the ion-electron system (eV)
  ---------------------------------------------------
  alpha Z        PSCENC =         0.44838482
  Ewald energy   TEWEN  =        26.60306768
  -Hartree energ DENC   =      -421.41895086
  -exchange      EXHF   =         0.00000000
  -V(xc)+E(xc)   XCENC  =        34.15390641
  PAW double counting   =       572.25834625     -574.34192960
  entropy T*S    EENTRO =         0.00000000
  eigenvalues    EBANDS =      -109.13034437
  atomic energy  EATOM  =       457.22046137
  ---------------------------------------------------
  free energy    TOTEN  =       -14.20705830 eV

  energy without entropy =      -14.20705830  energy(sigma->0) =      -14.20705830


--------------------------------------------------------------------------------------------------------




 average (electrostatic) potential at core
  the test charge radii are     0.7215  0.5201
  (the norm of the test charge is              1.0000)
       1 -80.4675       2 -44.7380       3 -44.7380
 
 
 
 E-fermi :  -1.7013     XC(G=0):  -1.0781     alpha+bet : -0.2601


 k-point     1 :       0.0000    0.0000    0.0000
  band No.  band energies     occupation 
      1     -25.3101      2.00000
      2     -13.0988      2.00000
      3      -9.0964      2.00000
      4      -7.0599      2.00000
      5      -1.0887      0.00000
      6       1.1182      0.00000
      7       1.2349      0.00000
      8       1.6790      0.00000


--------------------------------------------------------------------------------------------------------


 soft charge-density along one line, spin component           1
         0         1         2         3         4         5         6         7         8         9
x     7.3037    0.0000    6.7386   -0.5514    5.3491   -0.8543    3.7363   -0.8580    2.3375   -0.6673
x     1.3148   -0.4131    0.6537   -0.1852    0.2697   -0.0237    0.0703    0.0673   -0.0195    0.1022
x    -0.0513    0.1011   -0.0562    0.0821   -0.0502    0.0583   -0.0402    0.0374   -0.0295    0.0222
x    -0.0203    0.0124   -0.0132    0.0067   -0.0082    0.0035   -0.0050    0.0018   -0.0032    0.0007
x     0.0000    0.0000
y     7.3037    0.0000    6.7002    0.0000    5.2184    0.0000    3.5246    0.0000    2.1186    0.0000
y     1.1676    0.0000    0.6148    0.0000    0.3275    0.0000    0.1848    0.0000    0.1081    0.0000
y     0.0582    0.0000    0.0215    0.0000   -0.0034    0.0000   -0.0154    0.0000   -0.0169    0.0000
y    -0.0133    0.0000   -0.0088    0.0000   -0.0051    0.0000   -0.0026    0.0000   -0.0013    0.0000
y    -0.0006    0.0000   -0.0002    0.0000   -0.0001    0.0000    0.0000    0.0000    0.0000    0.0000
y     0.0000    0.0000    0.0000    0.0000    0.0000    0.0000    0.0000    0.0000
z     7.3037    0.0000    6.2756    0.0000    4.1159    0.0000    2.1628    0.0000    0.9074    0.0000
z     0.2631    0.0000   -0.0017    0.0000   -0.0773    0.0000   -0.0775    0.0000   -0.0564    0.0000
z    -0.0346    0.0000   -0.0188    0.0000   -0.0093    0.0000   -0.0042    0.0000   -0.0017    0.0000
z    -0.0006    0.0000   -0.0001    0.0000    0.0000    0.0000    0.0000    0.0000    0.0000    0.0000
z     0.0000    0.0000
 total charge-density along one line
x     8.0000    0.0000    7.4199   -0.5703    5.9945   -0.8800    4.3259   -0.8862    2.8586   -0.6905
x     1.7623   -0.4248    1.0290   -0.1822    0.5786   -0.0064    0.3204    0.0952    0.1799    0.1349
x     0.1044    0.1326    0.0618    0.1077    0.0351    0.0758    0.0173    0.0466    0.0055    0.0247
x    -0.0025    0.0108   -0.0072    0.0034   -0.0090    0.0003   -0.0087   -0.0004   -0.0071   -0.0004
x    -0.0028   -0.0003   -0.0013    0.0000   -0.0002    0.0000    0.0005   -0.0001    0.0006   -0.0002
x     0.0004   -0.0001    0.0002   -0.0001   -0.0001    0.0000   -0.0002    0.0001   -0.0002    0.0001
x    -0.0002    0.0000   -0.0002    0.0000   -0.0001    0.0000    0.0000    0.0000    0.0000    0.0000
x     0.0001    0.0000    0.0001    0.0000    0.0000    0.0000    0.0000    0.0000   -0.0001    0.0000
x    -0.0001    0.0000
y     8.0000    0.0000    7.3788    0.0000    5.8559    0.0000    4.1024    0.0000    2.6294    0.0000
y     1.6138    0.0000    1.0038    0.0000    0.6661    0.0000    0.4766    0.0000    0.3526    0.0000
y     0.2537    0.0000    0.1676    0.0000    0.0967    0.0000    0.0461    0.0000    0.0160    0.0000
y     0.0014    0.0000   -0.0035    0.0000   -0.0037    0.0000   -0.0023    0.0000   -0.0010    0.0000
y    -0.0003    0.0000   -0.0001    0.0000    0.0000    0.0000    0.0001    0.0000    0.0003    0.0000
y     0.0004    0.0000    0.0004    0.0000    0.0002    0.0000    0.0000    0.0000   -0.0001    0.0000
y    -0.0001    0.0000   -0.0001    0.0000    0.0000    0.0000    0.0000    0.0000    0.0000    0.0000
y     0.0000    0.0000    0.0000    0.0000    0.0000    0.0000    0.0000    0.0000    0.0000    0.0000
y     0.0000    0.0000    0.0000    0.0000    0.0000    0.0000    0.0000    0.0000    0.0000    0.0000
y     0.0000    0.0000    0.0000    0.0000    0.0000    0.0000    0.0000    0.0000    0.0000    0.0000
y     0.0000    0.0000    0.0000    0.0000    0.0000    0.0000    0.0000    0.0000    0.0000    0.0000
y     0.0000    0.0000    0.0000    0.0000
z     8.0000    0.0000    6.9469    0.0000    4.7196    0.0000    2.6701    0.0000    1.3086    0.0000
z     0.5642    0.0000    0.2144    0.0000    0.0713    0.0000    0.0193    0.0000    0.0013    0.0000
z    -0.0051    0.0000   -0.0080    0.0000   -0.0087    0.0000   -0.0073    0.0000   -0.0044    0.0000
z    -0.0016    0.0000    0.0002    0.0000    0.0007    0.0000    0.0005    0.0000    0.0001    0.0000
z    -0.0002    0.0000   -0.0002    0.0000   -0.0001    0.0000    0.0000    0.0000    0.0000    0.0000
z     0.0001    0.0000    0.0000    0.0000    0.0000    0.0000    0.0000    0.0000    0.0000    0.0000
z     0.0000    0.0000    0.0000    0.0000    0.0000    0.0000    0.0000    0.0000    0.0000    0.0000
z     0.0000    0.0000    0.0000    0.0000    0.0000    0.0000    0.0000    0.0000    0.0000    0.0000
z     0.0000    0.0000
 
 pseudopotential strength for first ion, spin component:           1
 13.786 -16.900   0.000   0.000  -0.125   0.000   0.000   0.157
-16.900  20.748   0.000   0.000   0.159   0.000   0.000  -0.201
  0.000   0.000 -10.569   0.000   0.000  13.100   0.000   0.000
  0.000   0.000   0.000 -10.322   0.000   0.000  12.770   0.000
 -0.125   0.159   0.000   0.000 -10.466   0.000   0.000  12.962
  0.000   0.000  13.100   0.000   0.000 -16.166   0.000   0.000
  0.000   0.000   0.000  12.770   0.000   0.000 -15.721   0.000
  0.157  -0.201   0.000   0.000  12.962   0.000   0.000 -15.980
 total augmentation occupancy for first ion, spin component:           1
  3.031   0.584   0.000   0.000   0.434   0.000   0.000   0.178
  0.584   0.160   0.000   0.000   0.417   0.000   0.000   0.083
  0.000   0.000   2.505  -0.001   0.000   0.503   0.000   0.000
  0.000   0.000  -0.001   2.215   0.000   0.000   0.174   0.000
  0.434   0.417   0.000   0.000   2.387   0.000   0.000   0.365
  0.000   0.000   0.503   0.000   0.000   0.101   0.000   0.000
  0.000   0.000   0.000   0.174   0.000   0.000   0.014   0.000
  0.178   0.083   0.000   0.000   0.365   0.000   0.000   0.060


------------------------ aborting loop because EDIFF is reached ----------------------------------------


    CHARGE:  cpu time    0.11: real time    0.11
    FORLOC:  cpu time    0.07: real time    0.07
    FORNL :  cpu time    0.03: real time    0.03
    STRESS:  cpu time    0.22: real time    0.22
    FORCOR:  cpu time    0.88: real time    0.88
    FORHAR:  cpu time    0.27: real time    0.27
    MIXING:  cpu time    0.03: real time    0.03
    OFIELD:  cpu time    0.00: real time    0.00

  FORCE on cell =-STRESS in cart. coord.  units (eV):
  Direction    XX          YY          ZZ          XY          YZ          ZX
  --------------------------------------------------------------------------------------
  Alpha Z     0.44838     0.44838     0.44838
  Ewald      12.60061    69.29602   -55.29360     0.00000     0.00000     0.00000
  Hartree   141.31010   150.86741   129.20523     0.00000    -0.00119     0.00000
  E(xc)     -36.26397   -36.05992   -36.55689     0.00000     0.00027     0.00000
  Local    -243.23858  -293.34269  -184.29503     0.00000     0.00414     0.00000
  n-local   -31.71936   -30.91345   -31.42477     0.00000     0.00274     0.00000
  augment     6.78401     5.77691     8.18479     0.00000     0.00008     0.00000
  Kinetic   149.86025   134.31113   168.81959     0.00000     0.00295     0.00000
  Fock        0.00000     0.00000     0.00000     0.00000     0.00000     0.00000
  -------------------------------------------------------------------------------------
  Total      -0.21856     0.38380    -0.91230     0.00000     0.00898     0.00000
  in kB      -0.70015     1.22952    -2.92257     0.00000     0.02875     0.00000
  external pressure =       -0.80 kB  Pullay stress =        0.00 kB


 VOLUME and BASIS-vectors are now :
 -----------------------------------------------------------------------------
  energy-cutoff  :      400.00
  volume of cell :      500.13
      direct lattice vectors                 reciprocal lattice vectors
     7.937700000  0.000000000  0.000000000     0.125981078  0.000000000  0.000000000
     0.000000000  7.937700000  7.937700000     0.000000000  0.125981078  0.000000000
     0.000000000  0.000000000  7.937700000     0.000000000 -0.125981078  0.125981078

  length of vectors
     7.937700000 11.225602994  7.937700000     0.125981078  0.125981078  0.178164149


 FORCES acting on ions
    electron-ion (+dipol)            ewald-force                    non-local-force                 convergence-correction
 -----------------------------------------------------------------------------------------------
   0.641E+02 -.114E-06 0.172E-06   -.115E+03 0.142E-13 0.748E-16   0.496E+02 0.000E+00 0.000E+00   0.185E-01 -.215E-13 0.233E-13
   -.517E+02 0.727E+02 0.735E-03   0.574E+02 -.807E+02 -.473E-16   -.515E+01 0.717E+01 0.362E-03   -.153E-02 0.365E-02 0.177E-04
   -.517E+02 -.727E+02 -.735E-03   0.574E+02 0.807E+02 -.805E-16   -.515E+01 -.717E+01 -.362E-03   -.153E-02 -.365E-02 -.177E-04
 -----------------------------------------------------------------------------------------------
   -.393E+02 -.126E-06 0.265E-06   0.711E-14 0.000E+00 -.530E-16   0.393E+02 0.000E+00 0.000E+00   0.155E-01 -.232E-13 0.277E-13
 
 
 POSITION                                       TOTAL-FORCE (eV/Angst)
 -----------------------------------------------------------------------------------
      0.00000      0.00000      0.00000        -1.090196      0.000000      0.000000
      0.58210      7.18097      7.93770         0.545098     -0.750448      0.001115
      0.58210      0.75673      7.93770         0.545098      0.750448     -0.001115
 -----------------------------------------------------------------------------------
    total drift:                                0.003974      0.000000      0.000000


--------------------------------------------------------------------------------------------------------



  FREE ENERGIE OF THE ION-ELECTRON SYSTEM (eV)
  ---------------------------------------------------
  free  energy   TOTEN  =       -14.20705830 eV

  energy  without entropy=      -14.20705830  energy(sigma->0) =      -14.20705830
 


--------------------------------------------------------------------------------------------------------


    POTLOK:  cpu time    0.84: real time    0.85


--------------------------------------------------------------------------------------------------------


 Quasi-Newton relaxation of ions (Broydens 2nd method)
  g(Force)  = 0.137E+00   g(Stress)= 0.000E+00

 Reset! Starting new Quasi-Newton update for ions 


--------------------------------------------------------------------------------------------------------


    WAVPRE:  cpu time    0.23: real time    0.24
    FEWALD:  cpu time    0.00: real time    0.00
    ORTHCH:  cpu time    0.01: real time    0.01
     LOOP+:  cpu time   10.79: real time   10.90


----------------------------------------- Iteration    2(   1)  ---------------------------------------


    POTLOK:  cpu time    0.83: real time    0.84
    SETDIJ:  cpu time    0.01: real time    0.01
     EDDAV:  cpu time    0.31: real time    0.31
       DOS:  cpu time    0.00: real time    0.00
    CHARGE:  cpu time    0.11: real time    0.11
    MIXING:  cpu time    0.03: real time    0.03
    --------------------------------------------
      LOOP:  cpu time    1.29: real time    1.29

 eigenvalue-minimisations  :    16
 total energy-change (2. order) : 0.5705860E-02  (-0.2512115E+00)
 number of electron       8.0000012 magnetization 
 augmentation part        0.6656139 magnetization 

 Broyden mixing:
  rms(total) = 0.92600E-01    rms(broyden)= 0.92320E-01
  rms(prec ) = 0.12408E+00
  weight for this iteration     100.00

 Free energy of the ion-electron system (eV)
  ---------------------------------------------------
  alpha Z        PSCENC =         0.44838482
  Ewald energy   TEWEN  =        18.02446634
  -Hartree energ DENC   =      -416.91471655
  -exchange      EXHF   =         0.00000000
  -V(xc)+E(xc)   XCENC  =        33.93438610
  PAW double counting   =       572.01241352     -574.09498494
  entropy T*S    EENTRO =         0.00000000
  eigenvalues    EBANDS =      -104.83167752
  atomic energy  EATOM  =       457.22046137
  ---------------------------------------------------
  free energy    TOTEN  =       -14.20126687 eV

  energy without entropy =      -14.20126687  energy(sigma->0) =      -14.20126687


--------------------------------------------------------------------------------------------------------




----------------------------------------- Iteration    2(   2)  ---------------------------------------


    POTLOK:  cpu time    0.80: real time    0.80
    SETDIJ:  cpu time    0.01: real time    0.01
     EDDAV:  cpu time    0.54: real time    0.54
       DOS:  cpu time    0.00: real time    0.00
    CHARGE:  cpu time    0.11: real time    0.11
    MIXING:  cpu time    0.03: real time    0.03
    --------------------------------------------
      LOOP:  cpu time    1.48: real time    1.48

 eigenvalue-minimisations  :    32
 total energy-change (2. order) : 0.1382407E-01  (-0.9251198E-02)
 number of electron       8.0000011 magnetization 
 augmentation part        0.6752000 magnetization 

 Broyden mixing:
  rms(total) = 0.36196E-01    rms(broyden)= 0.36125E-01
  rms(prec ) = 0.42647E-01
  weight for this iteration     100.00

 eigenvalues of (default mixing * dielectric matrix)
  average eigenvalue GAMMA=   1.1735
  1.1735

 Free energy of the ion-electron system (eV)
  ---------------------------------------------------
  alpha Z        PSCENC =         0.44838482
  Ewald energy   TEWEN  =        18.02446634
  -Hartree energ DENC   =      -414.85822632
  -exchange      EXHF   =         0.00000000
  -V(xc)+E(xc)   XCENC  =        33.81920536
  PAW double counting   =       558.21065319     -560.25607270
  entropy T*S    EENTRO =         0.00000000
  eigenvalues    EBANDS =      -106.79631486
  atomic energy  EATOM  =       457.22046137
  ---------------------------------------------------
  free energy    TOTEN  =       -14.18744279 eV

  energy without entropy =      -14.18744279  energy(sigma->0) =      -14.18744279


--------------------------------------------------------------------------------------------------------




----------------------------------------- Iteration    2(   3)  ---------------------------------------


    POTLOK:  cpu time    0.80: real time    0.80
    SETDIJ:  cpu time    0.01: real time    0.01
     EDDAV:  cpu time    0.41: real time    0.41
       DOS:  cpu time    0.00: real time    0.00
    CHARGE:  cpu time    0.11: real time    0.11
    MIXING:  cpu time    0.03: real time    0.03
    --------------------------------------------
      LOOP:  cpu time    1.37: real time    1.37

 eigenvalue-minimisations  :    24
 total energy-change (2. order) : 0.5151431E-04  (-0.1268040E-03)
 number of electron       8.0000011 magnetization 
 augmentation part        0.6759673 magnetization 

 Broyden mixing:
  rms(total) = 0.18869E-01    rms(broyden)= 0.18863E-01
  rms(prec ) = 0.22357E-01
  weight for this iteration     100.00

 eigenvalues of (default mixing * dielectric matrix)
  average eigenvalue GAMMA=   1.6812
  1.0701  2.2923

 Free energy of the ion-electron system (eV)
  ---------------------------------------------------
  alpha Z        PSCENC =         0.44838482
  Ewald energy   TEWEN  =        18.02446634
  -Hartree energ DENC   =      -414.70233900
  -exchange      EXHF   =         0.00000000
  -V(xc)+E(xc)   XCENC  =        33.81066146
  PAW double counting   =       551.26250851     -553.29803540
  entropy T*S    EENTRO =         0.00000000
  eigenvalues    EBANDS =      -106.95349938
  atomic energy  EATOM  =       457.22046137
  ---------------------------------------------------
  free energy    TOTEN  =       -14.18739128 eV

  energy without entropy =      -14.18739128  energy(sigma->0) =      -14.18739128


--------------------------------------------------------------------------------------------------------




----------------------------------------- Iteration    2(   4)  ---------------------------------------


    POTLOK:  cpu time    0.79: real time    0.79
    SETDIJ:  cpu time    0.01: real time    0.01
     EDDAV:  cpu time    0.41: real time    0.41
       DOS:  cpu time    0.00: real time    0.00
    CHARGE:  cpu time    0.11: real time    0.11
    MIXING:  cpu time    0.03: real time    0.03
    --------------------------------------------
      LOOP:  cpu time    1.36: real time    1.39

 eigenvalue-minimisations  :    24
 total energy-change (2. order) :-0.4531564E-03  (-0.7275716E-04)
 number of electron       8.0000011 magnetization 
 augmentation part        0.6755838 magnetization 

 Broyden mixing:
  rms(total) = 0.23634E-02    rms(broyden)= 0.23616E-02
  rms(prec ) = 0.38135E-02
  weight for this iteration     100.00

 eigenvalues of (default mixing * dielectric matrix)
  average eigenvalue GAMMA=   1.6126
  2.4799  1.1789  1.1789

 Free energy of the ion-electron system (eV)
  ---------------------------------------------------
  alpha Z        PSCENC =         0.44838482
  Ewald energy   TEWEN  =        18.02446634
  -Hartree energ DENC   =      -414.72359741
  -exchange      EXHF   =         0.00000000
  -V(xc)+E(xc)   XCENC  =        33.81196089
  PAW double counting   =       544.11135758     -546.13907724
  entropy T*S    EENTRO =         0.00000000
  eigenvalues    EBANDS =      -106.94180077
  atomic energy  EATOM  =       457.22046137
  ---------------------------------------------------
  free energy    TOTEN  =       -14.18784443 eV

  energy without entropy =      -14.18784443  energy(sigma->0) =      -14.18784443


--------------------------------------------------------------------------------------------------------




----------------------------------------- Iteration    2(   5)  ---------------------------------------


    POTLOK:  cpu time    0.79: real time    0.79
    SETDIJ:  cpu time    0.01: real time    0.01
     EDDAV:  cpu time    0.41: real time    0.41
       DOS:  cpu time    0.00: real time    0.00
    CHARGE:  cpu time    0.11: real time    0.11
    MIXING:  cpu time    0.03: real time    0.03
    --------------------------------------------
      LOOP:  cpu time    1.36: real time    1.36

 eigenvalue-minimisations  :    24
 total energy-change (2. order) :-0.1519131E-03  (-0.1031185E-04)
 number of electron       8.0000011 magnetization 
 augmentation part        0.6759533 magnetization 

 Broyden mixing:
  rms(total) = 0.12000E-02    rms(broyden)= 0.11948E-02
  rms(prec ) = 0.20385E-02
  weight for this iteration     100.00

 eigenvalues of (default mixing * dielectric matrix)
  average eigenvalue GAMMA=   1.6284
  2.5519  2.0756  1.0644  0.8217

 Free energy of the ion-electron system (eV)
  ---------------------------------------------------
  alpha Z        PSCENC =         0.44838482
  Ewald energy   TEWEN  =        18.02446634
  -Hartree energ DENC   =      -414.70651571
  -exchange      EXHF   =         0.00000000
  -V(xc)+E(xc)   XCENC  =        33.81072729
  PAW double counting   =       543.21498709     -545.24061374
  entropy T*S    EENTRO =         0.00000000
  eigenvalues    EBANDS =      -106.95989380
  atomic energy  EATOM  =       457.22046137
  ---------------------------------------------------
  free energy    TOTEN  =       -14.18799635 eV

  energy without entropy =      -14.18799635  energy(sigma->0) =      -14.18799635


--------------------------------------------------------------------------------------------------------




----------------------------------------- Iteration    2(   6)  ---------------------------------------


    POTLOK:  cpu time    0.79: real time    0.79
    SETDIJ:  cpu time    0.01: real time    0.01
     EDDAV:  cpu time    0.52: real time    0.52
       DOS:  cpu time    0.00: real time    0.00
    CHARGE:  cpu time    0.11: real time    0.11
    MIXING:  cpu time    0.04: real time    0.04
    --------------------------------------------
      LOOP:  cpu time    1.47: real time    1.47

 eigenvalue-minimisations  :    32
 total energy-change (2. order) :-0.1035267E-03  (-0.1247053E-05)
 number of electron       8.0000011 magnetization 
 augmentation part        0.6759303 magnetization 

 Broyden mixing:
  rms(total) = 0.46559E-03    rms(broyden)= 0.46473E-03
  rms(prec ) = 0.10613E-02
  weight for this iteration     100.00

 eigenvalues of (default mixing * dielectric matrix)
  average eigenvalue GAMMA=   1.6573
  2.6142  2.2293  1.4600  0.9350  1.0482

 Free energy of the ion-electron system (eV)
  ---------------------------------------------------
  alpha Z        PSCENC =         0.44838482
  Ewald energy   TEWEN  =        18.02446634
  -Hartree energ DENC   =      -414.72258980
  -exchange      EXHF   =         0.00000000
  -V(xc)+E(xc)   XCENC  =        33.81130814
  PAW double counting   =       543.23144719     -545.25762714
  entropy T*S    EENTRO =         0.00000000
  eigenvalues    EBANDS =      -106.94395080
  atomic energy  EATOM  =       457.22046137
  ---------------------------------------------------
  free energy    TOTEN  =       -14.18809987 eV

  energy without entropy =      -14.18809987  energy(sigma->0) =      -14.18809987


--------------------------------------------------------------------------------------------------------




----------------------------------------- Iteration    2(   7)  ---------------------------------------


    POTLOK:  cpu time    0.81: real time    0.81
    SETDIJ:  cpu time    0.01: real time    0.01
     EDDAV:  cpu time    0.53: real time    0.54
       DOS:  cpu time    0.00: real time    0.00
    --------------------------------------------
      LOOP:  cpu time    1.35: real time    1.38

 eigenvalue-minimisations  :    32
 total energy-change (2. order) :-0.8893206E-04  (-0.1102352E-05)
 number of electron       8.0000011 magnetization 
 augmentation part        0.6759303 magnetization 

 Free energy of the ion-electron system (eV)
  ---------------------------------------------------
  alpha Z        PSCENC =         0.44838482
  Ewald energy   TEWEN  =        18.02446634
  -Hartree energ DENC   =      -414.73517729
  -exchange      EXHF   =         0.00000000
  -V(xc)+E(xc)   XCENC  =        33.81178857
  PAW double counting   =       543.30015302     -545.32724532
  entropy T*S    EENTRO =         0.00000000
  eigenvalues    EBANDS =      -106.93102031
  atomic energy  EATOM  =       457.22046137
  ---------------------------------------------------
  free energy    TOTEN  =       -14.18818881 eV

  energy without entropy =      -14.18818881  energy(sigma->0) =      -14.18818881


--------------------------------------------------------------------------------------------------------




 average (electrostatic) potential at core
  the test charge radii are     0.7215  0.5201
  (the norm of the test charge is              1.0000)
       1 -80.4264       2 -44.1538       3 -44.1538
 
 
 
 E-fermi :  -1.7013     XC(G=0):  -1.0498     alpha+bet : -0.2601


 k-point     1 :       0.0000    0.0000    0.0000
  band No.  band energies     occupation 
      1     -24.8026      2.00000
      2     -12.6866      2.00000
      3      -9.0186      2.00000
      4      -6.9577      2.00000
      5      -1.1682      0.00000
      6       1.0572      0.00000
      7       1.1245      0.00000
      8       1.7088      0.00000


--------------------------------------------------------------------------------------------------------


 soft charge-density along one line, spin component           1
         0         1         2         3         4         5         6         7         8         9
x     7.3241    0.0000    6.7401   -0.5855    5.3142   -0.8901    3.6797   -0.8659    2.2848   -0.6413
x     1.2831   -0.3652    0.6470   -0.1320    0.2830    0.0221    0.0946    0.0994    0.0073    0.1200
x    -0.0278    0.1075   -0.0388    0.0814   -0.0394    0.0545   -0.0345    0.0333   -0.0270    0.0190
x    -0.0194    0.0104   -0.0131    0.0056   -0.0083    0.0030   -0.0051    0.0016   -0.0032    0.0007
x     0.0000    0.0000
y     7.3241    0.0000    6.6940    0.0000    5.1636    0.0000    3.4493    0.0000    2.0645    0.0000
y     1.1563    0.0000    0.6420    0.0000    0.3746    0.0000    0.2325    0.0000    0.1439    0.0000
y     0.0785    0.0000    0.0291    0.0000   -0.0031    0.0000   -0.0175    0.0000   -0.0188    0.0000
y    -0.0142    0.0000   -0.0090    0.0000   -0.0050    0.0000   -0.0026    0.0000   -0.0013    0.0000
y    -0.0006    0.0000   -0.0003    0.0000   -0.0002    0.0000   -0.0001    0.0000    0.0000    0.0000
y     0.0000    0.0000    0.0000    0.0000    0.0000    0.0000    0.0000    0.0000
z     7.3241    0.0000    6.2780    0.0000    4.0982    0.0000    2.1482    0.0000    0.9053    0.0000
z     0.2694    0.0000    0.0064    0.0000   -0.0713    0.0000   -0.0745    0.0000   -0.0557    0.0000
z    -0.0349    0.0000   -0.0193    0.0000   -0.0097    0.0000   -0.0044    0.0000   -0.0018    0.0000
z    -0.0006    0.0000   -0.0001    0.0000    0.0000    0.0000    0.0000    0.0000    0.0000    0.0000
z     0.0000    0.0000
 total charge-density along one line
x     8.0000    0.0000    7.4030   -0.5998    5.9411   -0.9128    4.2519   -0.8904    2.7909   -0.6597
x     1.7188   -0.3714    1.0142   -0.1234    0.5872    0.0442    0.3431    0.1305    0.2071    0.1538
x     0.1291    0.1382    0.0801    0.1047    0.0462    0.0690    0.0223    0.0397    0.0066    0.0196
x    -0.0033    0.0080   -0.0085    0.0024   -0.0100    0.0005   -0.0091    0.0002   -0.0071    0.0003
x    -0.0026    0.0001   -0.0011    0.0002   -0.0001    0.0000    0.0004   -0.0001    0.0005   -0.0001
x     0.0004   -0.0001    0.0001    0.0000    0.0000    0.0001   -0.0001    0.0001   -0.0002    0.0001
x    -0.0002    0.0000   -0.0001    0.0000   -0.0001    0.0000    0.0000    0.0000    0.0000    0.0000
x     0.0001    0.0000    0.0001    0.0000    0.0000    0.0000    0.0000    0.0000   -0.0001    0.0000
x    -0.0001    0.0000
y     8.0000    0.0000    7.3538    0.0000    5.7829    0.0000    4.0105    0.0000    2.5620    0.0000
y     1.5937    0.0000    1.0267    0.0000    0.7120    0.0000    0.5240    0.0000    0.3871    0.0000
y     0.2706    0.0000    0.1701    0.0000    0.0916    0.0000    0.0398    0.0000    0.0123    0.0000
y     0.0011    0.0000   -0.0018    0.0000   -0.0013    0.0000   -0.0004    0.0000   -0.0001    0.0000
y    -0.0002    0.0000   -0.0003    0.0000   -0.0002    0.0000    0.0000    0.0000    0.0003    0.0000
y     0.0004    0.0000    0.0003    0.0000    0.0001    0.0000   -0.0001    0.0000   -0.0001    0.0000
y    -0.0001    0.0000   -0.0001    0.0000    0.0000    0.0000    0.0000    0.0000    0.0000    0.0000
y     0.0000    0.0000    0.0000    0.0000    0.0000    0.0000    0.0000    0.0000    0.0000    0.0000
y     0.0000    0.0000    0.0000    0.0000    0.0000    0.0000    0.0000    0.0000    0.0000    0.0000
y     0.0000    0.0000    0.0000    0.0000    0.0000    0.0000    0.0000    0.0000    0.0000    0.0000
y     0.0000    0.0000    0.0000    0.0000    0.0000    0.0000    0.0000    0.0000    0.0000    0.0000
y     0.0000    0.0000    0.0000    0.0000
z     8.0000    0.0000    6.9308    0.0000    4.6848    0.0000    2.6417    0.0000    1.2958    0.0000
z     0.5621    0.0000    0.2156    0.0000    0.0713    0.0000    0.0171    0.0000   -0.0022    0.0000
z    -0.0085    0.0000   -0.0104    0.0000   -0.0101    0.0000   -0.0079    0.0000   -0.0046    0.0000
z    -0.0016    0.0000    0.0002    0.0000    0.0008    0.0000    0.0005    0.0000    0.0001    0.0000
z    -0.0002    0.0000   -0.0002    0.0000   -0.0001    0.0000    0.0000    0.0000    0.0001    0.0000
z     0.0001    0.0000    0.0001    0.0000    0.0000    0.0000    0.0000    0.0000    0.0000    0.0000
z     0.0000    0.0000    0.0000    0.0000    0.0000    0.0000    0.0000    0.0000    0.0000    0.0000
z     0.0000    0.0000    0.0000    0.0000    0.0000    0.0000    0.0000    0.0000    0.0000    0.0000
z     0.0000    0.0000
 
 pseudopotential strength for first ion, spin component:           1
 13.781 -16.895   0.000   0.000  -0.115   0.000   0.000   0.144
-16.895  20.742   0.000   0.000   0.146   0.000   0.000  -0.184
  0.000   0.000 -10.559  -0.010   0.000  13.090   0.014   0.000
  0.000   0.000  -0.010 -10.331   0.000   0.014  12.784   0.000
 -0.115   0.146   0.000   0.000 -10.467   0.000   0.000  12.966
  0.000   0.000  13.090   0.014   0.000 -16.157  -0.019   0.000
  0.000   0.000   0.014  12.784   0.000  -0.019 -15.744   0.000
  0.144  -0.184   0.000   0.000  12.966   0.000   0.000 -15.990
 total augmentation occupancy for first ion, spin component:           1
  2.911   0.519   0.000   0.000   0.370   0.000   0.000   0.152
  0.519   0.139   0.000   0.000   0.388   0.000   0.000   0.073
  0.000   0.000   2.379   0.007   0.000   0.464   0.013   0.000
  0.000   0.000   0.007   2.196   0.000   0.013   0.167   0.000
  0.370   0.388   0.000   0.000   2.298   0.000   0.000   0.342
  0.000   0.000   0.464   0.013   0.000   0.091   0.003   0.000
  0.000   0.000   0.013   0.167   0.000   0.003   0.013   0.000
  0.152   0.073   0.000   0.000   0.342   0.000   0.000   0.054


------------------------ aborting loop because EDIFF is reached ----------------------------------------


    CHARGE:  cpu time    0.11: real time    0.11
    FORLOC:  cpu time    0.07: real time    0.07
    FORNL :  cpu time    0.03: real time    0.03
    STRESS:  cpu time    0.21: real time    0.21
    FORCOR:  cpu time    0.86: real time    0.86
    FORHAR:  cpu time    0.26: real time    0.26
    MIXING:  cpu time    0.04: real time    0.04
    OFIELD:  cpu time    0.00: real time    0.00

  FORCE on cell =-STRESS in cart. coord.  units (eV):
  Direction    XX          YY          ZZ          XY          YZ          ZX
  --------------------------------------------------------------------------------------
  Alpha Z     0.44838     0.44838     0.44838
  Ewald       9.27659    63.82920   -55.08136     0.00000     5.29010     0.00000
  Hartree   138.98117   148.91201   126.82735     0.00000     0.94741     0.00000
  E(xc)     -35.90810   -35.70014   -36.19794     0.00000     0.02294     0.00000
  Local    -238.30687  -288.24938  -181.33619     0.00000    -4.67733     0.00000
  n-local   -30.64362   -29.78450   -30.86256     0.00000     0.05180     0.00000
  augment     6.66202     5.72984     8.06061     0.00000    -0.10662     0.00000
  Kinetic   147.90470   132.44035   167.25045     0.00000    -1.58715     0.00000
  Fock        0.00000     0.00000     0.00000     0.00000     0.00000     0.00000
  -------------------------------------------------------------------------------------
  Total      -1.58572    -2.37423    -0.89124     0.00000    -0.05886     0.00000
  in kB      -5.07988    -7.60586    -2.85509     0.00000    -0.18856     0.00000
  external pressure =       -5.18 kB  Pullay stress =        0.00 kB


 VOLUME and BASIS-vectors are now :
 -----------------------------------------------------------------------------
  energy-cutoff  :      400.00
  volume of cell :      500.13
      direct lattice vectors                 reciprocal lattice vectors
     7.937700000  0.000000000  0.000000000     0.125981078  0.000000000  0.000000000
     0.000000000  7.937700000  7.937700000     0.000000000  0.125981078  0.000000000
     0.000000000  0.000000000  7.937700000     0.000000000 -0.125981078  0.125981078

  length of vectors
     7.937700000 11.225602994  7.937700000     0.125981078  0.125981078  0.178164149


 FORCES acting on ions
    electron-ion (+dipol)            ewald-force                    non-local-force                 convergence-correction
 -----------------------------------------------------------------------------------------------
   0.578E+02 -.761E-08 0.589E-08   -.104E+03 0.142E-13 0.000E+00   0.477E+02 0.000E+00 0.000E+00   0.690E-02 -.276E-13 0.224E-13
   -.484E+02 0.684E+02 0.313E+01   0.521E+02 -.734E+02 -.336E+01   -.432E+01 0.610E+01 0.279E+00   -.345E-03 0.752E-03 -.518E-04
   -.484E+02 -.684E+02 -.313E+01   0.521E+02 0.734E+02 0.336E+01   -.432E+01 -.610E+01 -.279E+00   -.345E-03 -.752E-03 0.518E-04
 -----------------------------------------------------------------------------------------------
   -.391E+02 -.362E-07 0.343E-07   -.711E-14 0.000E+00 0.000E+00   0.391E+02 0.000E+00 0.000E+00   0.621E-02 -.320E-13 0.252E-13
 
 
 POSITION                                       TOTAL-FORCE (eV/Angst)
 -----------------------------------------------------------------------------------
      0.00000      0.00000      0.00000         1.265244      0.000000      0.000000
      0.60839      7.14477      7.90150        -0.632622      1.049411      0.048270
      0.60839      0.79293      7.97390        -0.632622     -1.049411     -0.048270
 -----------------------------------------------------------------------------------
    total drift:                               -0.001617      0.000000      0.000000


--------------------------------------------------------------------------------------------------------



  FREE ENERGIE OF THE ION-ELECTRON SYSTEM (eV)
  ---------------------------------------------------
  free  energy   TOTEN  =       -14.18818881 eV

  energy  without entropy=      -14.18818881  energy(sigma->0) =      -14.18818881
 
 d Force =-0.1491304E-01[-0.113E+00, 0.829E-01]  d Energy =-0.1886949E-01 0.396E-02
 d Force = 0.8579188E+01[ 0.830E+01, 0.886E+01]  d Ewald  = 0.8578601E+01 0.587E-03


--------------------------------------------------------------------------------------------------------


    POTLOK:  cpu time    0.83: real time    0.83


--------------------------------------------------------------------------------------------------------


 Quasi-Newton relaxation of ions (Broydens 2nd method)
  g(Force)  = 0.251E+00   g(Stress)= 0.000E+00

 retain information from N=  1 steps
 eigenvalues of (default step * inverse Hessian matrix)
  average eigenvalue of G=   0.4307
 eigenvalue spectrum of G is  0.4307


--------------------------------------------------------------------------------------------------------


    WAVPRE:  cpu time    0.23: real time    0.23
    FEWALD:  cpu time    0.00: real time    0.00
    ORTHCH:  cpu time    0.01: real time    0.01
     LOOP+:  cpu time   12.31: real time   12.42


----------------------------------------- Iteration    3(   1)  ---------------------------------------


    POTLOK:  cpu time    0.82: real time    0.82
    SETDIJ:  cpu time    0.01: real time    0.01
     EDDAV:  cpu time    0.31: real time    0.31
       DOS:  cpu time    0.00: real time    0.00
    CHARGE:  cpu time    0.10: real time    0.10
    MIXING:  cpu time    0.03: real time    0.03
    --------------------------------------------
      LOOP:  cpu time    1.27: real time    1.28

 eigenvalue-minimisations  :    16
 total energy-change (2. order) :-0.3844954E-01  (-0.8262281E-01)
 number of electron       8.0000009 magnetization 
 augmentation part        0.6913617 magnetization 

 Broyden mixing:
  rms(total) = 0.47714E-01    rms(broyden)= 0.47556E-01
  rms(prec ) = 0.63440E-01
  weight for this iteration     100.00

 Free energy of the ion-electron system (eV)
  ---------------------------------------------------
  alpha Z        PSCENC =         0.44838482
  Ewald energy   TEWEN  =        22.76250052
  -Hartree energ DENC   =      -417.24229303
  -exchange      EXHF   =         0.00000000
  -V(xc)+E(xc)   XCENC  =        33.93436266
  PAW double counting   =       543.32810236     -545.35537504
  entropy T*S    EENTRO =         0.00000000
  eigenvalues    EBANDS =      -109.32269307
  atomic energy  EATOM  =       457.22046137
  ---------------------------------------------------
  free energy    TOTEN  =       -14.22654942 eV

  energy without entropy =      -14.22654942  energy(sigma->0) =      -14.22654942


--------------------------------------------------------------------------------------------------------




----------------------------------------- Iteration    3(   2)  ---------------------------------------


    POTLOK:  cpu time    0.83: real time    0.84
    SETDIJ:  cpu time    0.01: real time    0.01
     EDDAV:  cpu time    0.52: real time    0.52
       DOS:  cpu time    0.00: real time    0.00
    CHARGE:  cpu time    0.10: real time    0.10
    MIXING:  cpu time    0.03: real time    0.03
    --------------------------------------------
      LOOP:  cpu time    1.49: real time    1.50

 eigenvalue-minimisations  :    32
 total energy-change (2. order) : 0.3506362E-02  (-0.2273808E-02)
 number of electron       8.0000009 magnetization 
 augmentation part        0.6876718 magnetization 

 Broyden mixing:
  rms(total) = 0.21129E-01    rms(broyden)= 0.21082E-01
  rms(prec ) = 0.25323E-01
  weight for this iteration     100.00

 eigenvalues of (default mixing * dielectric matrix)
  average eigenvalue GAMMA=   1.3095
  1.3095

 Free energy of the ion-electron system (eV)
  ---------------------------------------------------
  alpha Z        PSCENC =         0.44838482
  Ewald energy   TEWEN  =        22.76250052
  -Hartree energ DENC   =      -418.27133613
  -exchange      EXHF   =         0.00000000
  -V(xc)+E(xc)   XCENC  =        33.99156018
  PAW double counting   =       550.47922986     -552.52440710
  entropy T*S    EENTRO =         0.00000000
  eigenvalues    EBANDS =      -108.32943657
  atomic energy  EATOM  =       457.22046137
  ---------------------------------------------------
  free energy    TOTEN  =       -14.22304305 eV

  energy without entropy =      -14.22304305  energy(sigma->0) =      -14.22304305


--------------------------------------------------------------------------------------------------------




----------------------------------------- Iteration    3(   3)  ---------------------------------------


    POTLOK:  cpu time    0.88: real time    0.88
    SETDIJ:  cpu time    0.01: real time    0.01
     EDDAV:  cpu time    0.53: real time    0.54
       DOS:  cpu time    0.00: real time    0.00
    CHARGE:  cpu time    0.11: real time    0.11
    MIXING:  cpu time    0.03: real time    0.04
    --------------------------------------------
      LOOP:  cpu time    1.56: real time    1.57

 eigenvalue-minimisations  :    32
 total energy-change (2. order) : 0.2304125E-04  (-0.1202915E-03)
 number of electron       8.0000009 magnetization 
 augmentation part        0.6864117 magnetization 

 Broyden mixing:
  rms(total) = 0.98970E-02    rms(broyden)= 0.98900E-02
  rms(prec ) = 0.11818E-01
  weight for this iteration     100.00

 eigenvalues of (default mixing * dielectric matrix)
  average eigenvalue GAMMA=   1.6366
  1.2730  2.0003

 Free energy of the ion-electron system (eV)
  ---------------------------------------------------
  alpha Z        PSCENC =         0.44838482
  Ewald energy   TEWEN  =        22.76250052
  -Hartree energ DENC   =      -418.48950094
  -exchange      EXHF   =         0.00000000
  -V(xc)+E(xc)   XCENC  =        34.00296004
  PAW double counting   =       554.92537398     -556.97808447
  entropy T*S    EENTRO =         0.00000000
  eigenvalues    EBANDS =      -108.11511533
  atomic energy  EATOM  =       457.22046137
  ---------------------------------------------------
  free energy    TOTEN  =       -14.22302001 eV

  energy without entropy =      -14.22302001  energy(sigma->0) =      -14.22302001


--------------------------------------------------------------------------------------------------------




----------------------------------------- Iteration    3(   4)  ---------------------------------------


    POTLOK:  cpu time    0.86: real time    0.87
    SETDIJ:  cpu time    0.01: real time    0.01
     EDDAV:  cpu time    0.43: real time    0.43
       DOS:  cpu time    0.00: real time    0.00
    CHARGE:  cpu time    0.08: real time    0.08
    MIXING:  cpu time    0.03: real time    0.04
    --------------------------------------------
      LOOP:  cpu time    1.41: real time    1.43

 eigenvalue-minimisations  :    24
 total energy-change (2. order) :-0.1322708E-03  (-0.4114491E-04)
 number of electron       8.0000009 magnetization 
 augmentation part        0.6871839 magnetization 

 Broyden mixing:
  rms(total) = 0.29494E-02    rms(broyden)= 0.29483E-02
  rms(prec ) = 0.41603E-02
  weight for this iteration     100.00

 eigenvalues of (default mixing * dielectric matrix)
  average eigenvalue GAMMA=   1.4913
  2.4223  1.0258  1.0258

 Free energy of the ion-electron system (eV)
  ---------------------------------------------------
  alpha Z        PSCENC =         0.44838482
  Ewald energy   TEWEN  =        22.76250052
  -Hartree energ DENC   =      -418.40183367
  -exchange      EXHF   =         0.00000000
  -V(xc)+E(xc)   XCENC  =        33.99779538
  PAW double counting   =       557.92633494     -559.98057165
  entropy T*S    EENTRO =         0.00000000
  eigenvalues    EBANDS =      -108.19622399
  atomic energy  EATOM  =       457.22046137
  ---------------------------------------------------
  free energy    TOTEN  =       -14.22315228 eV

  energy without entropy =      -14.22315228  energy(sigma->0) =      -14.22315228


--------------------------------------------------------------------------------------------------------




----------------------------------------- Iteration    3(   5)  ---------------------------------------


    POTLOK:  cpu time    0.82: real time    0.83
    SETDIJ:  cpu time    0.01: real time    0.01
     EDDAV:  cpu time    0.42: real time    0.42
       DOS:  cpu time    0.00: real time    0.00
    --------------------------------------------
      LOOP:  cpu time    1.25: real time    1.26

 eigenvalue-minimisations  :    24
 total energy-change (2. order) :-0.3025001E-04  (-0.1253571E-04)
 number of electron       8.0000009 magnetization 
 augmentation part        0.6871839 magnetization 

 Free energy of the ion-electron system (eV)
  ---------------------------------------------------
  alpha Z        PSCENC =         0.44838482
  Ewald energy   TEWEN  =        22.76250052
  -Hartree energ DENC   =      -418.46897900
  -exchange      EXHF   =         0.00000000
  -V(xc)+E(xc)   XCENC  =        34.00149400
  PAW double counting   =       558.79380726     -560.85018963
  entropy T*S    EENTRO =         0.00000000
  eigenvalues    EBANDS =      -108.13066187
  atomic energy  EATOM  =       457.22046137
  ---------------------------------------------------
  free energy    TOTEN  =       -14.22318253 eV

  energy without entropy =      -14.22318253  energy(sigma->0) =      -14.22318253


--------------------------------------------------------------------------------------------------------




 average (electrostatic) potential at core
  the test charge radii are     0.7215  0.5201
  (the norm of the test charge is              1.0000)
       1 -80.4472       2 -44.4561       3 -44.4561
 
 
 
 E-fermi :  -1.7013     XC(G=0):  -1.0279     alpha+bet : -0.2601


 k-point     1 :       0.0000    0.0000    0.0000
  band No.  band energies     occupation 
      1     -25.0822      2.00000
      2     -12.8986      2.00000
      3      -9.0721      2.00000
      4      -7.0124      2.00000
      5      -1.0716      0.00000
      6       1.0828      0.00000
      7       1.2467      0.00000
      8       1.7452      0.00000


--------------------------------------------------------------------------------------------------------


 soft charge-density along one line, spin component           1
         0         1         2         3         4         5         6         7         8         9
x     7.3128    0.0000    6.7390   -0.5680    5.3325   -0.8724    3.7090   -0.8633    2.3114   -0.6563
x     1.2981   -0.3909    0.6489   -0.1597    0.2747   -0.0011    0.0810    0.0837   -0.0071    0.1118
x    -0.0401    0.1051   -0.0477    0.0823   -0.0448    0.0568   -0.0373    0.0356   -0.0281    0.0207
x    -0.0198    0.0115   -0.0131    0.0062   -0.0082    0.0033   -0.0050    0.0017   -0.0032    0.0007
x     0.0000    0.0000
y     7.3128    0.0000    6.6985    0.0000    5.1966    0.0000    3.4940    0.0000    2.0962    0.0000
y     1.1625    0.0000    0.6258    0.0000    0.3471    0.0000    0.2051    0.0000    0.1237    0.0000
y     0.0674    0.0000    0.0253    0.0000   -0.0029    0.0000   -0.0162    0.0000   -0.0177    0.0000
y    -0.0138    0.0000   -0.0089    0.0000   -0.0051    0.0000   -0.0026    0.0000   -0.0013    0.0000
y    -0.0006    0.0000   -0.0003    0.0000   -0.0001    0.0000   -0.0001    0.0000    0.0000    0.0000
y     0.0000    0.0000    0.0000    0.0000    0.0000    0.0000    0.0000    0.0000
z     7.3128    0.0000    6.2769    0.0000    4.1087    0.0000    2.1570    0.0000    0.9071    0.0000
z     0.2664    0.0000    0.0023    0.0000   -0.0744    0.0000   -0.0760    0.0000   -0.0561    0.0000
z    -0.0347    0.0000   -0.0190    0.0000   -0.0095    0.0000   -0.0043    0.0000   -0.0017    0.0000
z    -0.0006    0.0000   -0.0001    0.0000    0.0000    0.0000    0.0000    0.0000    0.0000    0.0000
z     0.0000    0.0000
 total charge-density along one line
x     8.0000    0.0000    7.4129   -0.5823    5.9694   -0.8968    4.2899   -0.8903    2.8246   -0.6777
x     1.7394   -0.4003    1.0199   -0.1540    0.5812    0.0187    0.3305    0.1133    0.1927    0.1452
x     0.1165    0.1363    0.0711    0.1070    0.0410    0.0728    0.0202    0.0433    0.0063    0.0222
x    -0.0028    0.0093   -0.0078    0.0028   -0.0096    0.0004   -0.0090   -0.0001   -0.0072    0.0000
x    -0.0027   -0.0001   -0.0012    0.0001   -0.0001    0.0000    0.0005   -0.0001    0.0006   -0.0002
x     0.0004   -0.0001    0.0002    0.0000    0.0000    0.0001   -0.0002    0.0001   -0.0002    0.0001
x    -0.0002    0.0000   -0.0001    0.0000   -0.0001    0.0000    0.0000    0.0000    0.0000    0.0000
x     0.0001    0.0000    0.0001    0.0000    0.0000    0.0000    0.0000    0.0000   -0.0001    0.0000
x    -0.0001    0.0000
y     8.0000    0.0000    7.3714    0.0000    5.8268    0.0000    4.0636    0.0000    2.5999    0.0000
y     1.6037    0.0000    1.0120    0.0000    0.6846    0.0000    0.4964    0.0000    0.3677    0.0000
y     0.2616    0.0000    0.1693    0.0000    0.0949    0.0000    0.0435    0.0000    0.0143    0.0000
y     0.0011    0.0000   -0.0029    0.0000   -0.0028    0.0000   -0.0015    0.0000   -0.0005    0.0000
y    -0.0002    0.0000   -0.0002    0.0000   -0.0001    0.0000    0.0001    0.0000    0.0003    0.0000
y     0.0004    0.0000    0.0004    0.0000    0.0002    0.0000    0.0000    0.0000   -0.0001    0.0000
y    -0.0001    0.0000   -0.0001    0.0000    0.0000    0.0000    0.0000    0.0000    0.0000    0.0000
y     0.0000    0.0000    0.0000    0.0000    0.0000    0.0000    0.0000    0.0000    0.0000    0.0000
y     0.0000    0.0000    0.0000    0.0000    0.0000    0.0000    0.0000    0.0000    0.0000    0.0000
y     0.0000    0.0000    0.0000    0.0000    0.0000    0.0000    0.0000    0.0000    0.0000    0.0000
y     0.0000    0.0000    0.0000    0.0000    0.0000    0.0000    0.0000    0.0000    0.0000    0.0000
y     0.0000    0.0000    0.0000    0.0000
z     8.0000    0.0000    6.9380    0.0000    4.7034    0.0000    2.6574    0.0000    1.3032    0.0000
z     0.5637    0.0000    0.2154    0.0000    0.0716    0.0000    0.0186    0.0000   -0.0001    0.0000
z    -0.0065    0.0000   -0.0090    0.0000   -0.0093    0.0000   -0.0075    0.0000   -0.0045    0.0000
z    -0.0016    0.0000    0.0002    0.0000    0.0008    0.0000    0.0005    0.0000    0.0001    0.0000
z    -0.0002    0.0000   -0.0002    0.0000   -0.0001    0.0000    0.0000    0.0000    0.0001    0.0000
z     0.0001    0.0000    0.0000    0.0000    0.0000    0.0000    0.0000    0.0000    0.0000    0.0000
z     0.0000    0.0000    0.0000    0.0000    0.0000    0.0000    0.0000    0.0000    0.0000    0.0000
z     0.0000    0.0000    0.0000    0.0000    0.0000    0.0000    0.0000    0.0000    0.0000    0.0000
z     0.0000    0.0000
 
 pseudopotential strength for first ion, spin component:           1
 13.784 -16.897   0.000   0.000  -0.120   0.000   0.000   0.151
-16.897  20.745   0.000   0.000   0.153   0.000   0.000  -0.193
  0.000   0.000 -10.563  -0.004   0.000  13.095   0.006   0.000
  0.000   0.000  -0.004 -10.326   0.000   0.006  12.776   0.000
 -0.120   0.153   0.000   0.000 -10.466   0.000   0.000  12.964
  0.000   0.000  13.095   0.006   0.000 -16.161  -0.008   0.000
  0.000   0.000   0.006  12.776   0.000  -0.008 -15.731   0.000
  0.151  -0.193   0.000   0.000  12.964   0.000   0.000 -15.985
 total augmentation occupancy for first ion, spin component:           1
  2.975   0.554   0.000   0.000   0.405   0.000   0.000   0.167
  0.554   0.150   0.000   0.000   0.404   0.000   0.000   0.079
  0.000   0.000   2.448   0.004   0.000   0.485   0.006   0.000
  0.000   0.000   0.004   2.206   0.000   0.005   0.170   0.000
  0.405   0.404   0.000   0.000   2.349   0.000   0.000   0.355
  0.000   0.000   0.485   0.005   0.000   0.096   0.001   0.000
  0.000   0.000   0.006   0.170   0.000   0.001   0.013   0.000
  0.167   0.079   0.000   0.000   0.355   0.000   0.000   0.058


------------------------ aborting loop because EDIFF is reached ----------------------------------------


    CHARGE:  cpu time    0.10: real time    0.10
    FORLOC:  cpu time    0.07: real time    0.07
    FORNL :  cpu time    0.03: real time    0.03
    STRESS:  cpu time    0.21: real time    0.21
    FORCOR:  cpu time    0.86: real time    0.87
    FORHAR:  cpu time    0.25: real time    0.25
    MIXING:  cpu time    0.03: real time    0.03
[...]
  Hartree   140.36058   149.92722   128.13318     0.00000     0.38963     0.00000
  E(xc)     -36.10286   -35.90066   -36.39723     0.00000     0.00972     0.00000
  Local    -241.45196  -290.77611  -182.91677     0.00000    -1.96907     0.00000
  n-local   -31.24305   -30.40007   -31.16829     0.00000     0.01672     0.00000
  augment     6.72536     5.76187     8.12832     0.00000    -0.04478     0.00000
  Kinetic   148.88235   133.54716   168.14085     0.00000    -0.65215     0.00000
  Fock        0.00000     0.00000     0.00000     0.00000     0.00000     0.00000
  -------------------------------------------------------------------------------------
  Total      -0.87277    -0.87324    -0.89649     0.00000     0.00986     0.00000
  in kB      -2.79594    -2.79745    -2.87191     0.00000     0.03158     0.00000
  external pressure =       -2.82 kB  Pullay stress =        0.00 kB


 VOLUME and BASIS-vectors are now :
 -----------------------------------------------------------------------------
  energy-cutoff  :      400.00
  volume of cell :      500.13
      direct lattice vectors                 reciprocal lattice vectors
     7.937700000  0.000000000  0.000000000     0.125981078  0.000000000  0.000000000
     0.000000000  7.937700000  7.937700000     0.000000000  0.125981078  0.000000000
     0.000000000  0.000000000  7.937700000     0.000000000 -0.125981078  0.125981078

  length of vectors
     7.937700000 11.225602994  7.937700000     0.125981078  0.125981078  0.178164149


 FORCES acting on ions
    electron-ion (+dipol)            ewald-force                    non-local-force                 convergence-correction
 -----------------------------------------------------------------------------------------------
   0.615E+02 -.554E-07 0.713E-07   -.110E+03 0.000E+00 0.222E-15   0.489E+02 0.000E+00 0.000E+00   0.371E-01 -.350E-13 0.234E-13
   -.504E+02 0.707E+02 0.135E+01   0.552E+02 -.773E+02 -.147E+01   -.479E+01 0.667E+01 0.126E+00   -.849E-03 0.313E-02 -.159E-03
   -.504E+02 -.707E+02 -.135E+01   0.552E+02 0.773E+02 0.147E+01   -.479E+01 -.667E+01 -.126E+00   -.849E-03 -.313E-02 0.159E-03
 -----------------------------------------------------------------------------------------------
   -.393E+02 -.119E-06 0.166E-06   0.711E-14 0.000E+00 0.000E+00   0.393E+02 0.000E+00 0.000E+00   0.354E-01 -.390E-13 0.265E-13
 
 
 POSITION                                       TOTAL-FORCE (eV/Angst)
 -----------------------------------------------------------------------------------
      0.00000      0.00000      0.00000         0.064505      0.000000      0.000000
      0.59542      7.16629      7.92301        -0.032253      0.091994      0.000752
      0.59542      0.77141      7.95239        -0.032253     -0.091994     -0.000752
 -----------------------------------------------------------------------------------
    total drift:                               -0.002333      0.000000      0.000000


--------------------------------------------------------------------------------------------------------



  FREE ENERGIE OF THE ION-ELECTRON SYSTEM (eV)
  ---------------------------------------------------
  free  energy   TOTEN  =       -14.22318253 eV

  energy  without entropy=      -14.22318253  energy(sigma->0) =      -14.22318253
 
 d Force = 0.3424066E-01[ 0.483E-02, 0.637E-01]  d Energy = 0.3499373E-01-0.753E-03
 d Force =-0.4737967E+01[-0.482E+01,-0.466E+01]  d Ewald  =-0.4738034E+01 0.670E-04


--------------------------------------------------------------------------------------------------------


    POTLOK:  cpu time    0.83: real time    0.83


--------------------------------------------------------------------------------------------------------


 Quasi-Newton relaxation of ions (Broydens 2nd method)
  g(Force)  = 0.173E-02   g(Stress)= 0.000E+00

 retain information from N=  1 steps
 eigenvalues of (default step * inverse Hessian matrix)
  average eigenvalue of G=   0.4608
 eigenvalue spectrum of G is  0.4608


--------------------------------------------------------------------------------------------------------


    WAVPRE:  cpu time    0.23: real time    0.23
    FEWALD:  cpu time    0.00: real time    0.00
    ORTHCH:  cpu time    0.01: real time    0.01
     LOOP+:  cpu time    9.61: real time    9.67


----------------------------------------- Iteration    4(   1)  ---------------------------------------


    POTLOK:  cpu time    0.80: real time    0.80
    SETDIJ:  cpu time    0.01: real time    0.01
     EDDAV:  cpu time    0.40: real time    0.41
       DOS:  cpu time    0.00: real time    0.00
    CHARGE:  cpu time    0.10: real time    0.10
    MIXING:  cpu time    0.03: real time    0.03
    --------------------------------------------
      LOOP:  cpu time    1.35: real time    1.38

 eigenvalue-minimisations  :    24
 total energy-change (2. order) :-0.3193509E-03  (-0.7177821E-03)
 number of electron       8.0000007 magnetization 
 augmentation part        0.6878010 magnetization 

 Broyden mixing:
  rms(total) = 0.38114E-02    rms(broyden)= 0.37906E-02
  rms(prec ) = 0.50118E-02
  weight for this iteration     100.00

 Free energy of the ion-electron system (eV)
  ---------------------------------------------------
  alpha Z        PSCENC =         0.44838482
  Ewald energy   TEWEN  =        23.12973190
  -Hartree energ DENC   =      -418.64685199
  -exchange      EXHF   =         0.00000000
  -V(xc)+E(xc)   XCENC  =        34.01027352
  PAW double counting   =       558.85770374     -560.91383397
  entropy T*S    EENTRO =         0.00000000
  eigenvalues    EBANDS =      -108.32934103
  atomic energy  EATOM  =       457.22046137
  ---------------------------------------------------
  free energy    TOTEN  =       -14.22347164 eV

  energy without entropy =      -14.22347164  energy(sigma->0) =      -14.22347164


--------------------------------------------------------------------------------------------------------




----------------------------------------- Iteration    4(   2)  ---------------------------------------


    POTLOK:  cpu time    0.79: real time    0.80
    SETDIJ:  cpu time    0.01: real time    0.01
     EDDAV:  cpu time    0.52: real time    0.52
       DOS:  cpu time    0.00: real time    0.00
    --------------------------------------------
      LOOP:  cpu time    1.32: real time    1.32

 eigenvalue-minimisations  :    32
 total energy-change (2. order) : 0.2177321E-05  (-0.1456384E-04)
 number of electron       8.0000007 magnetization 
 augmentation part        0.6878010 magnetization 

 Free energy of the ion-electron system (eV)
  ---------------------------------------------------
  alpha Z        PSCENC =         0.44838482
  Ewald energy   TEWEN  =        23.12973190
  -Hartree energ DENC   =      -418.71938564
  -exchange      EXHF   =         0.00000000
  -V(xc)+E(xc)   XCENC  =        34.01428667
  PAW double counting   =       559.38530423     -561.44252409
  entropy T*S    EENTRO =         0.00000000
  eigenvalues    EBANDS =      -108.25972872
  atomic energy  EATOM  =       457.22046137
  ---------------------------------------------------
  free energy    TOTEN  =       -14.22346946 eV

  energy without entropy =      -14.22346946  energy(sigma->0) =      -14.22346946


--------------------------------------------------------------------------------------------------------




 average (electrostatic) potential at core
  the test charge radii are     0.7215  0.5201
  (the norm of the test charge is              1.0000)
       1 -80.4556       2 -44.4871       3 -44.4871
 
 
 
 E-fermi :  -1.7013     XC(G=0):  -1.0227     alpha+bet : -0.2601


 k-point     1 :       0.0000    0.0000    0.0000
  band No.  band energies     occupation 
      1     -25.1120      2.00000
      2     -12.9138      2.00000
      3      -9.0841      2.00000
      4      -7.0199      2.00000
      5      -1.0698      0.00000
      6       1.0936      0.00000
      7       1.2472      0.00000
      8       1.7470      0.00000


--------------------------------------------------------------------------------------------------------


 soft charge-density along one line, spin component           1
         0         1         2         3         4         5         6         7         8         9
x     7.3122    0.0000    6.7388   -0.5678    5.3331   -0.8727    3.7099   -0.8643    2.3119   -0.6577
x     1.2982   -0.3924    0.6485   -0.1609    0.2741   -0.0018    0.0805    0.0834   -0.0076    0.1118
x    -0.0404    0.1052   -0.0479    0.0826   -0.0449    0.0571   -0.0373    0.0358   -0.0281    0.0209
x    -0.0197    0.0115   -0.0131    0.0062   -0.0082    0.0033   -0.0050    0.0017   -0.0032    0.0007
x     0.0000    0.0000
y     7.3122    0.0000    6.6993    0.0000    5.2001    0.0000    3.4986    0.0000    2.0997    0.0000
y     1.1637    0.0000    0.6248    0.0000    0.3448    0.0000    0.2027    0.0000    0.1219    0.0000
y     0.0663    0.0000    0.0249    0.0000   -0.0029    0.0000   -0.0160    0.0000   -0.0176    0.0000
y    -0.0137    0.0000   -0.0089    0.0000   -0.0051    0.0000   -0.0026    0.0000   -0.0013    0.0000
y    -0.0006    0.0000   -0.0003    0.0000   -0.0001    0.0000   -0.0001    0.0000    0.0000    0.0000
y     0.0000    0.0000    0.0000    0.0000    0.0000    0.0000    0.0000    0.0000
z     7.3122    0.0000    6.2772    0.0000    4.1097    0.0000    2.1579    0.0000    0.9075    0.0000
z     0.2665    0.0000    0.0022    0.0000   -0.0744    0.0000   -0.0760    0.0000   -0.0560    0.0000
z    -0.0347    0.0000   -0.0190    0.0000   -0.0095    0.0000   -0.0043    0.0000   -0.0017    0.0000
z    -0.0006    0.0000   -0.0001    0.0000    0.0000    0.0000    0.0000    0.0000    0.0000    0.0000
z     0.0000    0.0000
 total charge-density along one line
x     8.0000    0.0000    7.4131   -0.5822    5.9700   -0.8966    4.2908   -0.8903    2.8254   -0.6778
x     1.7400   -0.4005    1.0201   -0.1542    0.5812    0.0186    0.3303    0.1134    0.1926    0.1454
x     0.1164    0.1365    0.0710    0.1072    0.0409    0.0730    0.0202    0.0435    0.0063    0.0223
x    -0.0027    0.0094   -0.0078    0.0028   -0.0095    0.0004   -0.0090   -0.0001   -0.0071    0.0000
x    -0.0027   -0.0001   -0.0012    0.0001   -0.0001    0.0000    0.0005   -0.0001    0.0006   -0.0002
x     0.0004   -0.0001    0.0001    0.0000    0.0000    0.0001   -0.0002    0.0001   -0.0002    0.0001
x    -0.0002    0.0000   -0.0001    0.0000   -0.0001    0.0000    0.0000    0.0000    0.0000    0.0000
x     0.0001    0.0000    0.0001    0.0000    0.0000    0.0000    0.0000    0.0000   -0.0001    0.0000
x    -0.0001    0.0000
y     8.0000    0.0000    7.3727    0.0000    5.8307    0.0000    4.0688    0.0000    2.6037    0.0000
y     1.6051    0.0000    1.0112    0.0000    0.6827    0.0000    0.4944    0.0000    0.3663    0.0000
y     0.2610    0.0000    0.1695    0.0000    0.0953    0.0000    0.0439    0.0000    0.0146    0.0000
y     0.0011    0.0000   -0.0030    0.0000   -0.0029    0.0000   -0.0016    0.0000   -0.0006    0.0000
y    -0.0002    0.0000   -0.0002    0.0000   -0.0001    0.0000    0.0001    0.0000    0.0003    0.0000
y     0.0004    0.0000    0.0004    0.0000    0.0002    0.0000    0.0000    0.0000   -0.0001    0.0000
y    -0.0001    0.0000   -0.0001    0.0000    0.0000    0.0000    0.0000    0.0000    0.0000    0.0000
y     0.0000    0.0000    0.0000    0.0000    0.0000    0.0000    0.0000    0.0000    0.0000    0.0000
y     0.0000    0.0000    0.0000    0.0000    0.0000    0.0000    0.0000    0.0000    0.0000    0.0000
y     0.0000    0.0000    0.0000    0.0000    0.0000    0.0000    0.0000    0.0000    0.0000    0.0000
y     0.0000    0.0000    0.0000    0.0000    0.0000    0.0000    0.0000    0.0000    0.0000    0.0000
y     0.0000    0.0000    0.0000    0.0000
z     8.0000    0.0000    6.9392    0.0000    4.7046    0.0000    2.6581    0.0000    1.3035    0.0000
z     0.5638    0.0000    0.2154    0.0000    0.0717    0.0000    0.0187    0.0000    0.0000    0.0000
z    -0.0065    0.0000   -0.0090    0.0000   -0.0093    0.0000   -0.0075    0.0000   -0.0045    0.0000
z    -0.0016    0.0000    0.0002    0.0000    0.0008    0.0000    0.0005    0.0000    0.0001    0.0000
z    -0.0002    0.0000   -0.0002    0.0000   -0.0001    0.0000    0.0000    0.0000    0.0001    0.0000
z     0.0001    0.0000    0.0000    0.0000    0.0000    0.0000    0.0000    0.0000    0.0000    0.0000
z     0.0000    0.0000    0.0000    0.0000    0.0000    0.0000    0.0000    0.0000    0.0000    0.0000
z     0.0000    0.0000    0.0000    0.0000    0.0000    0.0000    0.0000    0.0000    0.0000    0.0000
z     0.0000    0.0000
 
 pseudopotential strength for first ion, spin component:           1
 13.785 -16.899   0.000   0.000  -0.121   0.000   0.000   0.152
-16.899  20.747   0.000   0.000   0.154   0.000   0.000  -0.195
  0.000   0.000 -10.565  -0.004   0.000  13.097   0.005   0.000
  0.000   0.000  -0.004 -10.327   0.000   0.005  12.778   0.000
 -0.121   0.154   0.000   0.000 -10.468   0.000   0.000  12.967
  0.000   0.000  13.097   0.005   0.000 -16.164  -0.007   0.000
  0.000   0.000   0.005  12.778   0.000  -0.007 -15.733   0.000
  0.152  -0.195   0.000   0.000  12.967   0.000   0.000 -15.989
 total augmentation occupancy for first ion, spin component:           1
  2.977   0.555   0.000   0.000   0.412   0.000   0.000   0.169
  0.555   0.151   0.000   0.000   0.408   0.000   0.000   0.080
  0.000   0.000   2.453   0.003   0.000   0.486   0.004   0.000
  0.000   0.000   0.003   2.207   0.000   0.004   0.170   0.000
  0.412   0.408   0.000   0.000   2.353   0.000   0.000   0.357
  0.000   0.000   0.486   0.004   0.000   0.096   0.001   0.000
  0.000   0.000   0.004   0.170   0.000   0.001   0.013   0.000
  0.169   0.080   0.000   0.000   0.357   0.000   0.000   0.058


------------------------ aborting loop because EDIFF is reached ----------------------------------------


    CHARGE:  cpu time    0.10: real time    0.10
    FORLOC:  cpu time    0.07: real time    0.07
    FORNL :  cpu time    0.03: real time    0.03
    STRESS:  cpu time    0.21: real time    0.21
    FORCOR:  cpu time    0.82: real time    0.82
    FORHAR:  cpu time    0.28: real time    0.28
    MIXING:  cpu time    0.03: real time    0.03
    OFIELD:  cpu time    0.00: real time    0.00

  FORCE on cell =-STRESS in cart. coord.  units (eV):
  Direction    XX          YY          ZZ          XY          YZ          ZX
  --------------------------------------------------------------------------------------
  Alpha Z     0.44838     0.44838     0.44838
  Ewald      11.86561    66.53966   -55.27558     0.00000     1.92138     0.00000
  Hartree   140.51635   149.98195   128.24459     0.00000     0.33051     0.00000
  E(xc)     -36.11470   -35.91543   -36.41011     0.00000     0.00786     0.00000
  Local    -241.87465  -290.80230  -183.04475     0.00000    -1.67306     0.00000
  n-local   -31.29292   -30.44434   -31.19215     0.00000     0.01418     0.00000
  augment     6.72752     5.76609     8.13555     0.00000    -0.03817     0.00000
  Kinetic   148.92416   133.69492   168.23072     0.00000    -0.55288     0.00000
  Fock        0.00000     0.00000     0.00000     0.00000     0.00000     0.00000
  -------------------------------------------------------------------------------------
  Total      -0.80024    -0.73107    -0.86334     0.00000     0.00982     0.00000
  in kB      -2.56359    -2.34199    -2.76574     0.00000     0.03145     0.00000
  external pressure =       -2.56 kB  Pullay stress =        0.00 kB


 VOLUME and BASIS-vectors are now :
 -----------------------------------------------------------------------------
  energy-cutoff  :      400.00
  volume of cell :      500.13
      direct lattice vectors                 reciprocal lattice vectors
     7.937700000  0.000000000  0.000000000     0.125981078  0.000000000  0.000000000
     0.000000000  7.937700000  7.937700000     0.000000000  0.125981078  0.000000000
     0.000000000  0.000000000  7.937700000     0.000000000 -0.125981078  0.125981078

  length of vectors
     7.937700000 11.225602994  7.937700000     0.125981078  0.125981078  0.178164149


 FORCES acting on ions
    electron-ion (+dipol)            ewald-force                    non-local-force                 convergence-correction
 -----------------------------------------------------------------------------------------------
   0.619E+02 -.609E-07 0.844E-07   -.111E+03 0.142E-13 0.444E-15   0.490E+02 0.000E+00 0.000E+00   -.531E-01 -.323E-13 0.712E-13
   -.506E+02 0.708E+02 0.115E+01   0.555E+02 -.775E+02 -.126E+01   -.483E+01 0.671E+01 0.108E+00   0.138E-02 -.364E-02 -.618E-03
   -.506E+02 -.708E+02 -.115E+01   0.555E+02 0.775E+02 0.126E+01   -.483E+01 -.671E+01 -.108E+00   0.138E-02 0.364E-02 0.618E-03
 -----------------------------------------------------------------------------------------------
   -.393E+02 -.120E-06 0.180E-06   0.000E+00 0.000E+00 0.000E+00   0.394E+02 0.000E+00 0.000E+00   -.503E-01 -.365E-13 0.832E-13
 
 
 POSITION                                       TOTAL-FORCE (eV/Angst)
 -----------------------------------------------------------------------------------
      0.00000      0.00000      0.00000        -0.015775      0.000000      0.000000
      0.59529      7.16853      7.92525         0.007887      0.009983     -0.001089
      0.59529      0.76917      7.95015         0.007887     -0.009983      0.001089
 -----------------------------------------------------------------------------------
    total drift:                               -0.000380      0.000000      0.000000


--------------------------------------------------------------------------------------------------------



  FREE ENERGIE OF THE ION-ELECTRON SYSTEM (eV)
  ---------------------------------------------------
  free  energy   TOTEN  =       -14.22346946 eV

  energy  without entropy=      -14.22346946  energy(sigma->0) =      -14.22346946
 
 d Force = 0.2307905E-03[ 0.378E-04, 0.424E-03]  d Energy = 0.2869236E-03-0.561E-04
 d Force =-0.3672302E+00[-0.367E+00,-0.367E+00]  d Ewald  =-0.3672314E+00 0.117E-05


--------------------------------------------------------------------------------------------------------


    POTLOK:  cpu time    0.84: real time    0.84


--------------------------------------------------------------------------------------------------------


 Quasi-Newton relaxation of ions (Broydens 2nd method)
  g(Force)  = 0.252E-04   g(Stress)= 0.000E+00

 retain information from N=  2 steps
 eigenvalues of (default step * inverse Hessian matrix)
  average eigenvalue of G=  48.7932
 eigenvalue spectrum of G is  0.4617 97.1248


--------------------------------------------------------------------------------------------------------


  
 reached required accuracy - stopping structural energy minimisation
 writing wavefunctions
     LOOP+:  cpu time    5.06: real time    5.16
    4ORBIT:  cpu time    0.00: real time    0.00

 total amount of memory used by VASP on root node    77237. kBytes
========================================================================

   base      :      30000. kBytes
   nonl-proj :       1591. kBytes
   grid      :      44477. kBytes
   one-center:          9. kBytes
   wavefun   :       1160. kBytes
 
  
  
 General timing and accounting informations for this job:
 ========================================================
  
                  Total CPU time used (sec):       39.871
                            User time (sec):       38.340
                          System time (sec):        1.531
                         Elapsed time (sec):       40.045
  
                   Maximum memory used (kb):      143436.
                   Average memory used (kb):           0.
  
                          Minor page faults:       330893
                          Major page faults:            0
                 Voluntary context switches:           28
