<?xml version="1.0" encoding="ISO-8859-1"?>
<modeling>
 <generator>
  <i name="program" type="string">vasp </i>
  <i name="version" type="string">5.3.5  </i>
  <i name="subversion" type="string">31Mar14 (build Dec 17 2014 13:12:56) complex                          serial </i>
  <i name="platform" type="string">LinuxIFC_ath </i>
  <i name="date" type="string">2015 06 29 </i>
  <i name="time" type="string">14:57:20 </i>
 </generator>
 <incar>
  <i type="string" name="PREC">normal</i>
  <i type="int" name="IBRION">     1</i>
  <i type="int" name="NFREE">     2</i>
  <i name="EDIFFG">     -0.02000000</i>
  <i type="int" name="NSW">    10</i>
  <i name="EMAX">    400.00000000</i>
  <i type="int" name="ISMEAR">     0</i>
  <i name="SIGMA">      0.10000000</i>
 </incar>
 <kpoints>
  <varray name="kpointlist" >
   <v>       0.00000000       0.00000000       0.00000000 </v>
  </varray>
  <varray name="weights" >
   <v>       1.00000000 </v>
  </varray>
 </kpoints>
 <parameters>
  <separator name="general" >
   <i type="string" name="SYSTEM">unknown system</i>
   <i type="logical" name="LCOMPAT"> F  </i>
  </separator>
  <separator name="electronic" >
   <i type="string" name="PREC">normal</i>
   <i name="ENMAX">    400.00000000</i>
   <i name="ENAUG">    605.39200000</i>
   <i name="EDIFF">      0.00010000</i>
   <i type="int" name="IALGO">    38</i>
   <i type="int" name="IWAVPR">    11</i>
   <i type="int" name="NBANDS">     8</i>
   <i name="NELECT">      8.00000000</i>
   <i type="int" name="TURBO">     0</i>
   <i type="int" name="IRESTART">     0</i>
   <i type="int" name="NREBOOT">     0</i>
   <i type="int" name="NMIN">     0</i>
   <i name="EREF">      0.00000000</i>
   <separator name="electronic smearing" >
    <i type="int" name="ISMEAR">     0</i>
    <i name="SIGMA">      0.10000000</i>
    <i name="KSPACING">      0.50000000</i>
    <i type="logical" name="KGAMMA"> T  </i>
   </separator>
   <separator name="electronic projectors" >
    <i type="logical" name="LREAL"> F  </i>
    <v name="ROPT">      0.00000000      0.00000000</v>
    <i type="int" name="LMAXPAW">  -100</i>
    <i type="int" name="LMAXMIX">     2</i>
    <i type="logical" name="NLSPLINE"> F  </i>
   </separator>
   <separator name="electronic startup" >
    <i type="int" name="ISTART">     1</i>
    <i type="int" name="ICHARG">     0</i>
    <i type="int" name="INIWAV">     1</i>
   </separator>
   <separator name="electronic spin" >
    <i type="int" name="ISPIN">     1</i>
    <i type="logical" name="LNONCOLLINEAR"> F  </i>
    <v name="MAGMOM">      1.00000000      1.00000000      1.00000000</v>
    <i name="NUPDOWN">     -1.00000000</i>
    <i type="logical" name="LSORBIT"> F  </i>
    <v name="SAXIS">      0.00000000      0.00000000      1.00000000</v>
    <i type="logical" name="LSPIRAL"> F  </i>
    <v name="QSPIRAL">      0.00000000      0.00000000      0.00000000</v>
    <i type="logical" name="LZEROZ"> F  </i>
   </separator>
   <separator name="electronic exchange-correlation" >
    <i type="logical" name="LASPH"> F  </i>
    <i type="logical" name="LMETAGGA"> F  </i>
   </separator>
   <separator name="electronic convergence" >
    <i type="int" name="NELM">    60</i>
    <i type="int" name="NELMDL">     0</i>
    <i type="int" name="NELMIN">     2</i>
    <i name="ENINI">    400.00000000</i>
    <separator name="electronic convergence detail" >
     <i type="logical" name="LDIAG"> T  </i>
     <i type="logical" name="LSUBROT"> F  </i>
     <i name="WEIMIN">      0.00100000</i>
     <i name="EBREAK">      0.00000313</i>
     <i name="DEPER">      0.30000000</i>
     <i type="int" name="NRMM">     4</i>
     <i name="TIME">      0.40000000</i>
    </separator>
   </separator>
   <separator name="electronic mixer" >
    <i name="AMIX">      0.40000000</i>
    <i name="BMIX">      1.00000000</i>
    <i name="AMIN">      0.10000000</i>
    <i name="AMIX_MAG">      1.60000000</i>
    <i name="BMIX_MAG">      1.00000000</i>
    <separator name="electronic mixer details" >
     <i type="int" name="IMIX">     4</i>
     <i type="int" name="MAXMIX">   -45</i>
     <i name="WC">    100.00000000</i>
     <i type="int" name="INIMIX">     1</i>
     <i type="int" name="MIXPRE">     1</i>
     <i type="int" name="MREMOVE">     5</i>
    </separator>
   </separator>
   <separator name="electronic dipolcorrection" >
    <i type="logical" name="LDIPOL"> F  </i>
    <i type="logical" name="LMONO"> F  </i>
    <i type="int" name="IDIPOL">     0</i>
    <i name="EPSILON">      1.00000000</i>
    <v name="DIPOL">   -100.00000000   -100.00000000   -100.00000000</v>
    <i name="EFIELD">      0.00000000</i>
   </separator>
  </separator>
  <separator name="grids" >
   <i type="int" name="NGX">    40</i>
   <i type="int" name="NGY">    56</i>
   <i type="int" name="NGZ">    40</i>
   <i type="int" name="NGXF">    80</i>
   <i type="int" name="NGYF">   112</i>
   <i type="int" name="NGZF">    80</i>
   <i type="logical" name="ADDGRID"> F  </i>
  </separator>
  <separator name="ionic" >
   <i type="int" name="NSW">    10</i>
   <i type="int" name="IBRION">     1</i>
   <i type="int" name="ISIF">     2</i>
   <i name="PSTRESS">      0.00000000</i>
   <i name="EDIFFG">     -0.02000000</i>
   <i type="int" name="NFREE">     2</i>
   <i name="POTIM">      0.50000000</i>
   <i name="SMASS">     -3.00000000</i>
   <i name="SCALEE">      1.00000000</i>
  </separator>
  <separator name="ionic md" >
   <i name="TEBEG">      0.00010000</i>
   <i name="TEEND">      0.00010000</i>
   <i type="int" name="NBLOCK">     1</i>
   <i type="int" name="KBLOCK">    10</i>
   <i type="int" name="NPACO">   256</i>
   <i name="APACO">     16.00000000</i>
  </separator>
  <separator name="symmetry" >
   <i type="int" name="ISYM">     2</i>
   <i name="SYMPREC">      0.00001000</i>
  </separator>
  <separator name="dos" >
   <i type="logical" name="LORBIT"> F  </i>
   <v name="RWIGS">     -1.00000000     -1.00000000</v>
   <i type="int" name="NEDOS">   301</i>
   <i name="EMIN">     10.00000000</i>
   <i name="EMAX">    400.00000000</i>
   <i name="EFERMI">      0.00000000</i>
  </separator>
  <separator name="writing" >
   <i type="int" name="NWRITE">     2</i>
   <i type="logical" name="LWAVE"> T  </i>
   <i type="logical" name="LCHARG"> T  </i>
   <i type="logical" name="LPARD"> F  </i>
   <i type="logical" name="LVTOT"> F  </i>
   <i type="logical" name="LVHAR"> F  </i>
   <i type="logical" name="LELF"> F  </i>
   <i type="logical" name="LOPTICS"> F  </i>
   <v name="STM">      0.00000000      0.00000000      0.00000000      0.00000000      0.00000000      0.00000000      0.00000000</v>
  </separator>
  <separator name="performance" >
   <i type="int" name="NPAR">     1</i>
   <i type="int" name="NSIM">     4</i>
   <i type="int" name="NBLK">    -1</i>
   <i type="logical" name="LPLANE"> T  </i>
   <i type="logical" name="LSCALAPACK"> F  </i>
   <i type="logical" name="LSCAAWARE"> F  </i>
   <i type="logical" name="LSCALU"> F  </i>
   <i type="logical" name="LASYNC"> F  </i>
   <i type="logical" name="LORBITALREAL"> F  </i>
  </separator>
  <separator name="miscellaneous" >
   <i type="int" name="IDIOT">     3</i>
   <i type="logical" name="LMUSIC"> F  </i>
   <v name="POMASS">     16.00000000      1.00000000</v>
   <v name="DARWINR">      0.00000000      0.00000000</v>
   <v name="DARWINV">      1.00000000      1.00000000</v>
   <i type="logical" name="LCORR"> T  </i>
  </separator>
  <i type="logical" name="GGA_COMPAT"> T  </i>
  <i type="logical" name="LBERRY"> F  </i>
  <i type="int" name="ICORELEVEL">     0</i>
  <i type="logical" name="LDAU"> F  </i>
  <i type="int" name="I_CONSTRAINED_M">     0</i>
  <separator name="electronic exchange-correlation" >
   <i type="string" name="GGA">--</i>
   <i type="int" name="VOSKOWN">     0</i>
   <i type="logical" name="LHFCALC"> F  </i>
   <i type="string" name="PRECFOCK"></i>
   <i type="logical" name="LSYMGRAD"> F  </i>
   <i type="logical" name="LHFONE"> F  </i>
   <i type="logical" name="LRHFCALC"> F  </i>
   <i type="logical" name="LTHOMAS"> F  </i>
   <i type="logical" name="LMODELHF"> F  </i>
   <i name="ENCUT4O">     -1.00000000</i>
   <i type="int" name="EXXOEP">     0</i>
   <i type="int" name="FOURORBIT">     0</i>
   <i name="AEXX">      0.00000000</i>
   <i name="HFALPHA">      0.00000000</i>
   <i name="MCALPHA">      0.00000000</i>
   <i name="ALDAX">      1.00000000</i>
   <i name="AGGAX">      1.00000000</i>
   <i name="ALDAC">      1.00000000</i>
   <i name="AGGAC">      1.00000000</i>
   <i type="int" name="NKREDX">     1</i>
   <i type="int" name="NKREDY">     1</i>
   <i type="int" name="NKREDZ">     1</i>
   <i type="logical" name="SHIFTRED"> F  </i>
   <i type="logical" name="ODDONLY"> F  </i>
   <i type="logical" name="EVENONLY"> F  </i>
   <i type="int" name="LMAXFOCK">     0</i>
   <i type="int" name="NMAXFOCKAE">     0</i>
   <i type="logical" name="LFOCKAEDFT"> F  </i>
   <i name="HFSCREEN">      0.00000000</i>
   <i name="HFSCREENC">      0.00000000</i>
   <i type="int" name="NBANDSGWLOW">     0</i>
  </separator>
  <separator name="vdW DFT" >
   <i type="logical" name="LUSE_VDW"> F  </i>
   <i name="Zab_VDW">     -0.84910000</i>
   <i name="PARAM1">      0.12340000</i>
   <i name="PARAM2">      1.00000000</i>
   <i name="PARAM3">      0.00000000</i>
  </separator>
  <separator name="model GW" >
   <i type="int" name="MODEL_GW">     0</i>
   <i name="MODEL_EPS0">    100.02626183</i>
   <i name="MODEL_ALPHA">      1.00000000</i>
  </separator>
  <separator name="linear response parameters" >
   <i type="logical" name="LEPSILON"> F  </i>
   <i type="logical" name="LRPA"> F  </i>
   <i type="logical" name="LNABLA"> F  </i>
   <i type="logical" name="LVEL"> F  </i>
   <i type="int" name="KINTER">     0</i>
   <i name="CSHIFT">      0.10000000</i>
   <i name="OMEGAMAX">     -1.00000000</i>
   <i name="DEG_THRESHOLD">      0.00200000</i>
  </separator>
  <separator name="orbital magnetization" >
   <i type="logical" name="NUCIND"> F  </i>
   <v name="MAGPOS">      0.00000000      0.00000000      0.00000000</v>
   <i type="logical" name="LNICSALL"> T  </i>
   <i type="logical" name="ORBITALMAG"> F  </i>
   <i type="logical" name="LMAGBLOCH"> F  </i>
   <i type="logical" name="LCHIMAG"> F  </i>
   <i type="logical" name="LGAUGE"> T  </i>
   <i type="int" name="MAGATOM">     0</i>
   <v name="MAGDIPOL">      0.00000000      0.00000000      0.00000000</v>
   <v name="AVECCONST">      0.00000000      0.00000000      0.00000000</v>
  </separator>
  <separator name="response functions" >
   <i type="logical" name="LADDER"> F  </i>
   <i type="logical" name="LFXC"> F  </i>
   <i type="logical" name="LHARTREE"> T  </i>
   <i type="int" name="IBSE">     0</i>
   <i type="logical" name="LTCTE"> F  </i>
   <i type="logical" name="LTETE"> F  </i>
   <i type="logical" name="LTRIPLET"> F  </i>
   <i type="logical" name="LFXCEPS"> F  </i>
   <i type="logical" name="LFXHEG"> F  </i>
   <i type="logical" name="L2ORDER"> F  </i>
   <i type="logical" name="LUSEW"> F  </i>
   <i name="ENCUTGW">     -2.00000000</i>
   <i name="ENCUTGWSOFT">     -2.00000000</i>
   <i name="ENCUTLF">     -1.00000000</i>
   <i type="int" name="LMAXMP2">    -1</i>
   <i name="SCISSOR">      0.00000000</i>
   <i type="int" name="NOMEGA">     0</i>
   <i type="int" name="NOMEGAR">     0</i>
   <i type="int" name="NBANDSGW">    -1</i>
   <i type="int" name="NBANDSO">    -1</i>
   <i type="int" name="NBANDSV">    -1</i>
   <i type="int" name="NELM">     1</i>
   <i type="int" name="DIM">     3</i>
   <i type="int" name="ANTIRES">     0</i>
   <i name="OMEGAMAX">    -30.00000000</i>
   <i name="OMEGAMIN">    -30.00000000</i>
   <i name="OMEGATL">   -200.00000000</i>
   <i type="int" name="OMEGAGRID">     0</i>
   <i name="CSHIFT">     -0.10000000</i>
   <i type="logical" name="SELFENERGY"> F  </i>
   <i type="logical" name="LSPECTRAL"> F  </i>
   <i type="logical" name="ODDONLYGW"> F  </i>
   <i type="logical" name="EVENONLYGW"> F  </i>
   <i type="int" name="NKREDLFX">     1</i>
   <i type="int" name="NKREDLFY">     1</i>
   <i type="int" name="NKREDLFZ">     1</i>
   <i type="int" name="MAXMEM">  1800</i>
   <i type="int" name="TELESCOPE">     0</i>
   <i type="int" name="TAUPAR">     1</i>
  </separator>
  <separator name="External order field" >
   <i name="OFIELD_KAPPA">      0.00000000</i>
   <v name="OFIELD_K">      0.00000000      0.00000000      0.00000000</v>
   <i name="OFIELD_Q6_NEAR">      0.00000000</i>
   <i name="OFIELD_Q6_FAR">      0.00000000</i>
   <i name="OFIELD_A">      0.00000000</i>
  </separator>
 </parameters>
 <atominfo>
  <atoms>       3 </atoms>
  <types>       2 </types>
  <array name="atoms" >
   <dimension dim="1">ion</dimension>
   <field type="string">element</field>
   <field type="int">atomtype</field>
   <set>
    <rc><c>O </c><c>   1</c></rc>
    <rc><c>H </c><c>   2</c></rc>
    <rc><c>H </c><c>   2</c></rc>
   </set>
  </array>
  <array name="atomtypes" >
   <dimension dim="1">type</dimension>
   <field type="int">atomspertype</field>
   <field type="string">element</field>
   <field>mass</field>
   <field>valence</field>
   <field type="string">pseudopotential</field>
   <set>
    <rc><c>   1</c><c>O </c><c>     16.00000000</c><c>      6.00000000</c><c>  PAW_PBE O 08Apr2002                   </c></rc>
    <rc><c>   2</c><c>H </c><c>      1.00000000</c><c>      1.00000000</c><c>  PAW_PBE H 15Jun2001                   </c></rc>
   </set>
  </array>
 </atominfo>
 <structure name="initialpos" >
  <crystal>
   <varray name="basis" >
    <v>       7.93770000       0.00000000       0.00000000 </v>
    <v>       0.00000000       7.93770000       7.93770000 </v>
    <v>       0.00000000       0.00000000       7.93770000 </v>
   </varray>
   <i name="volume">    500.13130916 </i>
   <varray name="rec_basis" >
    <v>       0.12598108       0.00000000       0.00000000 </v>
    <v>       0.00000000       0.12598108       0.00000000 </v>
    <v>       0.00000000      -0.12598108       0.12598108 </v>
   </varray>
  </crystal>
  <varray name="positions" >
   <v>       0.00000000       0.00000000       0.00000000 </v>
   <v>       0.07333333       0.90466667       0.09533333 </v>
   <v>       0.07333333       0.09533333       0.90466667 </v>
  </varray>
  <varray name="selective"  type="logical" >
   <v type="logical" >  F  F  F </v>
   <v type="logical" >  T  T  F </v>
   <v type="logical" >  T  T  F </v>
  </varray>
  <nose>
   <v>      -3.00000000       0.00000000       0.00010000       0.00010000 </v>
  </nose>
 </structure>
 <calculation>
  <scstep>
   <time name="dav">    0.31    0.32</time>
   <time name="total">    1.36    1.40</time>
   <energy>
    <i name="alphaZ">      0.44838482 </i>
    <i name="ewald">     26.60306768 </i>
    <i name="hartreedc">   -418.77783075 </i>
    <i name="XCdc">     34.01755364 </i>
    <i name="pawpsdc">    562.69760983 </i>
    <i name="pawaedc">   -564.75946230 </i>
    <i name="eentropy">      0.00000000 </i>
    <i name="bandstr">   -111.67304648 </i>
    <i name="atom">    457.22046137 </i>
    <i name="e_fr_energy">    -14.22326219 </i>
    <i name="e_wo_entrp">    -14.22326219 </i>
    <i name="e_0_energy">    -14.22326219 </i>
   </energy>
  </scstep>
  <scstep>
   <time name="dav">    0.41    0.41</time>
   <time name="total">    1.46    1.47</time>
   <energy>
    <i name="e_fr_energy">    -14.20762532 </i>
    <i name="e_wo_entrp">    -14.20762532 </i>
    <i name="e_0_energy">    -14.20762532 </i>
   </energy>
  </scstep>
  <scstep>
   <time name="dav">    0.40    0.40</time>
   <time name="total">    1.42    1.42</time>
   <energy>
    <i name="e_fr_energy">    -14.20714099 </i>
    <i name="e_wo_entrp">    -14.20714099 </i>
    <i name="e_0_energy">    -14.20714099 </i>
   </energy>
  </scstep>
  <scstep>
   <time name="dav">    0.41    0.41</time>
   <time name="total">    1.40    1.40</time>
   <energy>
    <i name="e_fr_energy">    -14.20697273 </i>
    <i name="e_wo_entrp">    -14.20697273 </i>
    <i name="e_0_energy">    -14.20697273 </i>
   </energy>
  </scstep>
  <scstep>
   <time name="dav">    0.32    0.32</time>
   <time name="total">    1.18    1.19</time>
   <energy>
    <i name="alphaZ">      0.44838482 </i>
    <i name="ewald">     26.60306768 </i>
    <i name="hartreedc">   -421.41895086 </i>
    <i name="XCdc">     34.15390641 </i>
    <i name="pawpsdc">    572.25834625 </i>
    <i name="pawaedc">   -574.34192960 </i>
    <i name="eentropy">      0.00000000 </i>
    <i name="bandstr">   -109.13034437 </i>
    <i name="atom">    457.22046137 </i>
    <i name="e_fr_energy">    -14.20705830 </i>
    <i name="e_wo_entrp">    -14.20705830 </i>
    <i name="e_0_energy">    -14.20705830 </i>
   </energy>
  </scstep>
  <structure>
   <crystal>
    <varray name="basis" >
     <v>       7.93770000       0.00000000       0.00000000 </v>
     <v>       0.00000000       7.93770000       7.93770000 </v>
     <v>       0.00000000       0.00000000       7.93770000 </v>
    </varray>
    <i name="volume">    500.13130916 </i>
    <varray name="rec_basis" >
     <v>       0.12598108       0.00000000       0.00000000 </v>
     <v>       0.00000000       0.12598108       0.00000000 </v>
     <v>       0.00000000      -0.12598108       0.12598108 </v>
    </varray>
   </crystal>
   <varray name="positions" >
    <v>       0.00000000       0.00000000       0.00000000 </v>
    <v>       0.07333333       0.90466667       0.09533333 </v>
    <v>       0.07333333       0.09533333       0.90466667 </v>
   </varray>
  </structure>
  <varray name="forces" >
   <v>      -1.09019563       0.00000000       0.00000000 </v>
   <v>       0.54509781      -0.75044819       0.00111491 </v>
   <v>       0.54509781       0.75044819      -0.00111491 </v>
  </varray>
  <varray name="stress" >
   <v>      -0.70014882       0.00000000       0.00000000 </v>
   <v>       0.00000000       1.22952223       0.02875361 </v>
   <v>       0.00000000       0.02875357      -2.92256520 </v>
  </varray>
  <energy>
   <i name="e_fr_energy">    -14.20705830 </i>
   <i name="e_wo_entrp">    -14.20705830 </i>
   <i name="e_0_energy">      0.00000000 </i>
  </energy>
  <time name="totalsc">   10.79   10.90</time>
 </calculation>
 <calculation>
  <scstep>
   <time name="dav">    0.31    0.31</time>
   <time name="total">    1.29    1.29</time>
   <energy>
    <i name="alphaZ">      0.44838482 </i>
    <i name="ewald">     18.02446634 </i>
    <i name="hartreedc">   -416.91471655 </i>
    <i name="XCdc">     33.93438610 </i>
    <i name="pawpsdc">    572.01241352 </i>
    <i name="pawaedc">   -574.09498494 </i>
    <i name="eentropy">      0.00000000 </i>
    <i name="bandstr">   -104.83167752 </i>
    <i name="atom">    457.22046137 </i>
    <i name="e_fr_energy">    -14.20126687 </i>
    <i name="e_wo_entrp">    -14.20126687 </i>
    <i name="e_0_energy">    -14.20126687 </i>
   </energy>
  </scstep>
  <scstep>
   <time name="dav">    0.54    0.54</time>
   <time name="total">    1.48    1.48</time>
   <energy>
    <i name="e_fr_energy">    -14.18744279 </i>
    <i name="e_wo_entrp">    -14.18744279 </i>
    <i name="e_0_energy">    -14.18744279 </i>
   </energy>
  </scstep>
  <scstep>
   <time name="dav">    0.41    0.41</time>
   <time name="total">    1.37    1.37</time>
   <energy>
    <i name="e_fr_energy">    -14.18739128 </i>
    <i name="e_wo_entrp">    -14.18739128 </i>
    <i name="e_0_energy">    -14.18739128 </i>
   </energy>
  </scstep>
  <scstep>
   <time name="dav">    0.41    0.41</time>
   <time name="total">    1.36    1.39</time>
   <energy>
    <i name="e_fr_energy">    -14.18784443 </i>
    <i name="e_wo_entrp">    -14.18784443 </i>
    <i name="e_0_energy">    -14.18784443 </i>
   </energy>
  </scstep>
  <scstep>
   <time name="dav">    0.41    0.41</time>
   <time name="total">    1.36    1.36</time>
   <energy>
    <i name="e_fr_energy">    -14.18799635 </i>
    <i name="e_wo_entrp">    -14.18799635 </i>
    <i name="e_0_energy">    -14.18799635 </i>
   </energy>
  </scstep>
  <scstep>
   <time name="dav">    0.52    0.52</time>
   <time name="total">    1.47    1.47</time>
   <energy>
    <i name="e_fr_energy">    -14.18809987 </i>
    <i name="e_wo_entrp">    -14.18809987 </i>
    <i name="e_0_energy">    -14.18809987 </i>
   </energy>
  </scstep>
  <scstep>
   <time name="dav">    0.53    0.54</time>
   <time name="total">    1.35    1.38</time>
   <energy>
    <i name="alphaZ">      0.44838482 </i>
    <i name="ewald">     18.02446634 </i>
    <i name="hartreedc">   -414.73517729 </i>
    <i name="XCdc">     33.81178857 </i>
    <i name="pawpsdc">    543.30015302 </i>
    <i name="pawaedc">   -545.32724532 </i>
    <i name="eentropy">      0.00000000 </i>
    <i name="bandstr">   -106.93102031 </i>
    <i name="atom">    457.22046137 </i>
    <i name="e_fr_energy">    -14.18818881 </i>
    <i name="e_wo_entrp">    -14.18818881 </i>
    <i name="e_0_energy">    -14.18818881 </i>
   </energy>
  </scstep>
  <structure>
   <crystal>
    <varray name="basis" >
     <v>       7.93770000       0.00000000       0.00000000 </v>
     <v>       0.00000000       7.93770000       7.93770000 </v>
     <v>       0.00000000       0.00000000       7.93770000 </v>
    </varray>
    <i name="volume">    500.13130916 </i>
    <varray name="rec_basis" >
     <v>       0.12598108       0.00000000       0.00000000 </v>
     <v>       0.00000000       0.12598108       0.00000000 </v>
     <v>       0.00000000      -0.12598108       0.12598108 </v>
    </varray>
   </crystal>
   <varray name="positions" >
    <v>       0.00000000       0.00000000       0.00000000 </v>
    <v>       0.07664625       0.90010570       0.09533333 </v>
    <v>       0.07664625       0.09989430       0.90466667 </v>
   </varray>
  </structure>
  <varray name="forces" >
   <v>       1.26524362       0.00000000       0.00000000 </v>
   <v>      -0.63262181       1.04941081       0.04826954 </v>
   <v>      -0.63262181      -1.04941081      -0.04826954 </v>
  </varray>
  <varray name="stress" >
   <v>      -5.07987996       0.00000000       0.00000000 </v>
   <v>       0.00000000      -7.60586325      -0.18855566 </v>
   <v>       0.00000000      -0.18855567      -2.85508697 </v>
  </varray>
  <energy>
   <i name="e_fr_energy">    -14.18818881 </i>
   <i name="e_wo_entrp">    -14.18818881 </i>
   <i name="e_0_energy">      0.00000000 </i>
  </energy>
  <time name="totalsc">   12.31   12.42</time>
 </calculation>
 <calculation>
  <scstep>
   <time name="dav">    0.31    0.31</time>
   <time name="total">    1.27    1.28</time>
   <energy>
    <i name="alphaZ">      0.44838482 </i>
    <i name="ewald">     22.76250052 </i>
    <i name="hartreedc">   -417.24229303 </i>
    <i name="XCdc">     33.93436266 </i>
    <i name="pawpsdc">    543.32810236 </i>
    <i name="pawaedc">   -545.35537504 </i>
    <i name="eentropy">      0.00000000 </i>
    <i name="bandstr">   -109.32269307 </i>
    <i name="atom">    457.22046137 </i>
    <i name="e_fr_energy">    -14.22654942 </i>
    <i name="e_wo_entrp">    -14.22654942 </i>
    <i name="e_0_energy">    -14.22654942 </i>
   </energy>
  </scstep>
  <scstep>
   <time name="dav">    0.52    0.52</time>
   <time name="total">    1.49    1.50</time>
   <energy>
    <i name="e_fr_energy">    -14.22304305 </i>
    <i name="e_wo_entrp">    -14.22304305 </i>
    <i name="e_0_energy">    -14.22304305 </i>
   </energy>
  </scstep>
  <scstep>
   <time name="dav">    0.53    0.54</time>
   <time name="total">    1.56    1.57</time>
   <energy>
    <i name="e_fr_energy">    -14.22302001 </i>
    <i name="e_wo_entrp">    -14.22302001 </i>
    <i name="e_0_energy">    -14.22302001 </i>
   </energy>
  </scstep>
  <scstep>
   <time name="dav">    0.43    0.43</time>
   <time name="total">    1.41    1.43</time>
   <energy>
    <i name="e_fr_energy">    -14.22315228 </i>
    <i name="e_wo_entrp">    -14.22315228 </i>
    <i name="e_0_energy">    -14.22315228 </i>
   </energy>
  </scstep>
  <scstep>
   <time name="dav">    0.42    0.42</time>
   <time name="total">    1.25    1.26</time>
   <energy>
    <i name="alphaZ">      0.44838482 </i>
    <i name="ewald">     22.76250052 </i>
    <i name="hartreedc">   -418.46897900 </i>
    <i name="XCdc">     34.00149400 </i>
    <i name="pawpsdc">    558.79380726 </i>
    <i name="pawaedc">   -560.85018963 </i>
    <i name="eentropy">      0.00000000 </i>
    <i name="bandstr">   -108.13066187 </i>
    <i name="atom">    457.22046137 </i>
    <i name="e_fr_energy">    -14.22318253 </i>
    <i name="e_wo_entrp">    -14.22318253 </i>
    <i name="e_0_energy">    -14.22318253 </i>
   </energy>
  </scstep>
  <structure>
   <crystal>
    <varray name="basis" >
     <v>       7.93770000       0.00000000       0.00000000 </v>
     <v>       0.00000000       7.93770000       7.93770000 </v>
     <v>       0.00000000       0.00000000       7.93770000 </v>
    </varray>
    <i name="volume">    500.13130916 </i>
    <varray name="rec_basis" >
     <v>       0.12598108       0.00000000       0.00000000 </v>
     <v>       0.00000000       0.12598108       0.00000000 </v>
     <v>       0.00000000      -0.12598108       0.12598108 </v>
    </varray>
   </crystal>
   <varray name="positions" >
    <v>       0.00000000       0.00000000       0.00000000 </v>
    <v>       0.07501203       0.90281659       0.09533333 </v>
    <v>       0.07501203       0.09718341       0.90466667 </v>
   </varray>
  </structure>
  <varray name="forces" >
   <v>       0.06450548       0.00000000       0.00000000 </v>
   <v>      -0.03225274       0.09199434       0.00075208 </v>
   <v>      -0.03225274      -0.09199434      -0.00075208 </v>
  </varray>
  <varray name="stress" >
   <v>      -2.79594433       0.00000000       0.00000000 </v>
   <v>       0.00000000      -2.79744674       0.03157559 </v>
   <v>       0.00000000       0.03157560      -2.87191420 </v>
  </varray>
  <energy>
   <i name="e_fr_energy">    -14.22318253 </i>
   <i name="e_wo_entrp">    -14.22318253 </i>
   <i name="e_0_energy">      0.00000000 </i>
  </energy>
  <time name="totalsc">    9.61    9.67</time>
 </calculation>
 <calculation>
  <scstep>
   <time name="dav">    0.40    0.41</time>
   <time name="total">    1.35    1.38</time>
   <energy>
    <i name="alphaZ">      0.44838482 </i>
    <i name="ewald">     23.12973190 </i>
    <i name="hartreedc">   -418.64685199 </i>
    <i name="XCdc">     34.01027352 </i>
    <i name="pawpsdc">    558.85770374 </i>
    <i name="pawaedc">   -560.91383397 </i>
    <i name="eentropy">      0.00000000 </i>
    <i name="bandstr">   -108.32934103 </i>
    <i name="atom">    457.22046137 </i>
    <i name="e_fr_energy">    -14.22347164 </i>
    <i name="e_wo_entrp">    -14.22347164 </i>
    <i name="e_0_energy">    -14.22347164 </i>
   </energy>
  </scstep>
  <scstep>
   <time name="dav">    0.52    0.52</time>
   <time name="total">    1.32    1.32</time>
   <energy>
    <i name="alphaZ">      0.44838482 </i>
    <i name="ewald">     23.12973190 </i>
    <i name="hartreedc">   -418.71938564 </i>
    <i name="XCdc">     34.01428667 </i>
    <i name="pawpsdc">    559.38530423 </i>
    <i name="pawaedc">   -561.44252409 </i>
    <i name="eentropy">      0.00000000 </i>
    <i name="bandstr">   -108.25972872 </i>
    <i name="atom">    457.22046137 </i>
    <i name="e_fr_energy">    -14.22346946 </i>
    <i name="e_wo_entrp">    -14.22346946 </i>
    <i name="e_0_energy">    -14.22346946 </i>
   </energy>
  </scstep>
  <structure>
   <crystal>
    <varray name="basis" >
     <v>       7.93770000       0.00000000       0.00000000 </v>
     <v>       0.00000000       7.93770000       7.93770000 </v>
     <v>       0.00000000       0.00000000       7.93770000 </v>
    </varray>
    <i name="volume">    500.13130916 </i>
    <varray name="rec_basis" >
     <v>       0.12598108       0.00000000       0.00000000 </v>
     <v>       0.00000000       0.12598108       0.00000000 </v>
     <v>       0.00000000      -0.12598108       0.12598108 </v>
    </varray>
   </crystal>
   <varray name="positions" >
    <v>       0.00000000       0.00000000       0.00000000 </v>
    <v>       0.07499556       0.90309870       0.09533333 </v>
    <v>       0.07499556       0.09690130       0.90466667 </v>
   </varray>
  </structure>
  <varray name="forces" >
   <v>      -0.01577482       0.00000000       0.00000000 </v>
   <v>       0.00788741       0.00998268      -0.00108892 </v>
   <v>       0.00788741      -0.00998268       0.00108892 </v>
  </varray>
  <varray name="stress" >
   <v>      -2.56358517       0.00000000       0.00000000 </v>
   <v>       0.00000000      -2.34198759       0.03145098 </v>
   <v>       0.00000000       0.03145097      -2.76573528 </v>
  </varray>
  <energy>
   <i name="e_fr_energy">    -14.22346946 </i>
   <i name="e_wo_entrp">    -14.22346946 </i>
   <i name="e_0_energy">      0.00000000 </i>
  </energy>
  <time name="totalsc">    5.06    5.16</time>
  <eigenvalues>
   <array>
    <dimension dim="1">band</dimension>
    <dimension dim="2">kpoint</dimension>
    <dimension dim="3">spin</dimension>
    <field>eigene</field>
    <field>occ</field>
    <set>
     <set comment="spin 1">
      <set comment="kpoint 1">
       <r>  -25.1120    1.0000 </r>
       <r>  -12.9138    1.0000 </r>
       <r>   -9.0841    1.0000 </r>
       <r>   -7.0199    1.0000 </r>
       <r>   -1.0698    0.0000 </r>
       <r>    1.0936    0.0000 </r>
       <r>    1.2472    0.0000 </r>
       <r>    1.7470    0.0000 </r>
      </set>
     </set>
    </set>
   </array>
  </eigenvalues>
  <separator name="orbital magnetization" >
   <v name="MAGDIPOLOUT">      0.00000000      0.00000000      0.00000000</v>
  </separator>
 </calculation>
 <structure name="finalpos" >
  <crystal>
   <varray name="basis" >
    <v>       7.93770000       0.00000000       0.00000000 </v>
    <v>       0.00000000       7.93770000       7.93770000 </v>
    <v>       0.00000000       0.00000000       7.93770000 </v>
   </varray>
   <i name="volume">    500.13130916 </i>
   <varray name="rec_basis" >
    <v>       0.12598108       0.00000000       0.00000000 </v>
    <v>       0.00000000       0.12598108       0.00000000 </v>
    <v>       0.00000000      -0.12598108       0.12598108 </v>
   </varray>
  </crystal>
  <varray name="positions" >
   <v>       0.00000000       0.00000000       0.00000000 </v>
   <v>       0.07499556       0.90309870       0.09533333 </v>
   <v>       0.07499556       0.09690130       0.90466667 </v>
  </varray>
  <varray name="selective"  type="logical" >
   <v type="logical" >  F  F  F </v>
   <v type="logical" >  T  T  F </v>
   <v type="logical" >  T  T  F </v>
  </varray>
  <nose>
   <v>      -3.00000000       0.00000000       0.00010000       0.00010000 </v>
  </nose>
 </structure>
</modeling>
