unknown system                          
           1
     7.937700    0.000000    0.000000
     0.000000    7.937700    7.937700
     0.000000    0.000000    7.937700
   O    H 
   1   2
Direct configuration=     1
   0.00000000  0.00000000  0.00000000
   0.07333333  0.90466667  0.09533333
   0.07333333  0.09533333  0.90466667
Direct configuration=     2
   0.00000000  0.00000000  0.00000000
   0.07664625  0.90010570  0.09533333
   0.07664625  0.09989430  0.90466667
Direct configuration=     3
   0.00000000  0.00000000  0.00000000
   0.07501203  0.90281659  0.09533333
   0.07501203  0.09718341  0.90466667
Direct configuration=     4
   0.00000000  0.00000000  0.00000000
   0.07499556  0.90309870  0.09533333
   0.07499556  0.09690130  0.90466667
