   1   1   0   0
  0.5120000E+03  0.8000000E-09  0.8000000E-09  0.8000000E-09  0.5000000E-15
  1.000000000000000E-004
  CAR 
 O atom in a box                         
      3.99771354    -26.75430654  301     -7.41244884      1.00000000
    -26.754  0.0000E+00  0.0000E+00  0.0000E+00  0.0000E+00
    -26.652  0.0000E+00  0.0000E+00  0.0000E+00  0.0000E+00
    -26.549  0.0000E+00  0.0000E+00  0.0000E+00  0.0000E+00
    -26.447  0.0000E+00  0.0000E+00  0.0000E+00  0.0000E+00
    -26.344  0.0000E+00  0.0000E+00  0.0000E+00  0.0000E+00
    -26.242  0.0000E+00  0.0000E+00  0.0000E+00  0.0000E+00
    -26.139  0.0000E+00  0.0000E+00  0.0000E+00  0.0000E+00
    -26.037  0.0000E+00  0.0000E+00  0.0000E+00  0.0000E+00
    -25.934  0.5415E-15  0.0000E+00  0.5551E-16  0.0000E+00
    -25.832  0.1246E-12  0.0000E+00  0.1282E-13  0.0000E+00
    -25.729  0.2637E-10  0.0000E+00  0.2716E-11  0.0000E+00
    -25.627  0.3326E-08  0.0000E+00  0.3437E-09  0.0000E+00
    -25.524  0.2505E-06  0.0000E+00  0.2603E-07  0.0000E+00
    -25.422  0.1129E-04  0.0000E+00  0.1183E-05  0.0000E+00
    -25.319  0.3047E-03  0.0000E+00  0.3242E-04  0.0000E+00
    -25.217  0.4936E-02  0.0000E+00  0.5384E-03  0.0000E+00
    -25.114  0.4808E-01  0.0000E+00  0.5467E-02  0.0000E+00
    -25.012  0.2821E+00  0.0000E+00  0.3438E-01  0.0000E+00
    -24.909  0.9984E+00  0.0000E+00  0.1367E+00  0.0000E+00
    -24.807  0.2135E+01  0.0000E+00  0.3556E+00  0.0000E+00
    -24.704  0.2760E+01  0.0000E+00  0.6385E+00  0.0000E+00
    -24.602  0.2159E+01  0.0000E+00  0.8598E+00  0.0000E+00
    -24.499  0.1021E+01  0.0000E+00  0.9644E+00  0.0000E+00
    -24.397  0.2915E+00  0.0000E+00  0.9943E+00  0.0000E+00
    -24.294  0.5024E-01  0.0000E+00  0.9994E+00  0.0000E+00
    -24.192  0.5216E-02  0.0000E+00  0.1000E+01  0.0000E+00
    -24.089  0.3256E-03  0.0000E+00  0.1000E+01  0.0000E+00
    -23.987  0.1220E-04  0.0000E+00  0.1000E+01  0.0000E+00
    -23.884  0.2738E-06  0.0000E+00  0.1000E+01  0.0000E+00
    -23.782  0.3675E-08  0.0000E+00  0.1000E+01  0.0000E+00
    -23.679  0.2947E-10  0.0000E+00  0.1000E+01  0.0000E+00
    -23.577  0.1408E-12  0.0000E+00  0.1000E+01  0.0000E+00
    -23.474  0.0000E+00  0.0000E+00  0.1000E+01  0.0000E+00
    -23.372  0.0000E+00  0.0000E+00  0.1000E+01  0.0000E+00
    -23.269  0.0000E+00  0.0000E+00  0.1000E+01  0.0000E+00
    -23.167  0.0000E+00  0.0000E+00  0.1000E+01  0.0000E+00
    -23.064  0.0000E+00  0.0000E+00  0.1000E+01  0.0000E+00
    -22.962  0.0000E+00  0.1083E-14  0.1000E+01  0.1110E-15
    -22.859  0.0000E+00  0.2751E-12  0.1000E+01  0.2831E-13
    -22.757  0.0000E+00  0.5414E-10  0.1000E+01  0.5578E-11
    -22.654  0.0000E+00  0.6346E-08  0.1000E+01  0.6561E-09
    -22.552  0.0000E+00  0.4443E-06  0.1000E+01  0.4620E-07
    -22.449  0.0000E+00  0.1861E-04  0.1000E+01  0.1954E-05
    -22.347  0.0000E+00  0.4671E-03  0.1000E+01  0.4983E-04
    -22.244  0.0000E+00  0.7038E-02  0.1000E+01  0.7712E-03
    -22.142  0.0000E+00  0.6377E-01  0.1000E+01  0.7308E-02
    -22.039  0.0000E+00  0.3482E+00  0.1000E+01  0.4300E-01
    -21.936  0.0000E+00  0.1147E+01  0.1000E+01  0.1606E+00
    -21.834  0.0000E+00  0.2283E+01  0.1000E+01  0.3946E+00
    -21.731  0.0000E+00  0.2748E+01  0.1000E+01  0.6764E+00
    -21.629  0.0000E+00  0.2001E+01  0.1000E+01  0.8815E+00
    -21.526  0.0000E+00  0.8807E+00  0.1000E+01  0.9718E+00
    -21.424  0.0000E+00  0.2341E+00  0.1000E+01  0.9958E+00
    -21.321  0.0000E+00  0.3755E-01  0.1000E+01  0.9996E+00
    -21.219  0.0000E+00  0.3626E-02  0.1000E+01  0.1000E+01
    -21.116  0.0000E+00  0.2105E-03  0.1000E+01  0.1000E+01
    -21.014  0.0000E+00  0.7334E-05  0.1000E+01  0.1000E+01
    -20.911  0.0000E+00  0.1530E-06  0.1000E+01  0.1000E+01
    -20.809  0.0000E+00  0.1909E-08  0.1000E+01  0.1000E+01
    -20.706  0.0000E+00  0.1423E-10  0.1000E+01  0.1000E+01
    -20.604  0.0000E+00  0.6282E-13  0.1000E+01  0.1000E+01
    -20.501  0.0000E+00  0.0000E+00  0.1000E+01  0.1000E+01
    -20.399  0.0000E+00  0.0000E+00  0.1000E+01  0.1000E+01
    -20.296  0.0000E+00  0.0000E+00  0.1000E+01  0.1000E+01
    -20.194  0.0000E+00  0.0000E+00  0.1000E+01  0.1000E+01
    -20.091  0.0000E+00  0.0000E+00  0.1000E+01  0.1000E+01
    -19.989  0.0000E+00  0.0000E+00  0.1000E+01  0.1000E+01
    -19.886  0.0000E+00  0.0000E+00  0.1000E+01  0.1000E+01
    -19.784  0.0000E+00  0.0000E+00  0.1000E+01  0.1000E+01
    -19.681  0.0000E+00  0.0000E+00  0.1000E+01  0.1000E+01
    -19.579  0.0000E+00  0.0000E+00  0.1000E+01  0.1000E+01
    -19.476  0.0000E+00  0.0000E+00  0.1000E+01  0.1000E+01
    -19.374  0.0000E+00  0.0000E+00  0.1000E+01  0.1000E+01
    -19.271  0.0000E+00  0.0000E+00  0.1000E+01  0.1000E+01
    -19.169  0.0000E+00  0.0000E+00  0.1000E+01  0.1000E+01
    -19.066  0.0000E+00  0.0000E+00  0.1000E+01  0.1000E+01
    -18.964  0.0000E+00  0.0000E+00  0.1000E+01  0.1000E+01
    -18.861  0.0000E+00  0.0000E+00  0.1000E+01  0.1000E+01
    -18.759  0.0000E+00  0.0000E+00  0.1000E+01  0.1000E+01
    -18.656  0.0000E+00  0.0000E+00  0.1000E+01  0.1000E+01
    -18.554  0.0000E+00  0.0000E+00  0.1000E+01  0.1000E+01
    -18.451  0.0000E+00  0.0000E+00  0.1000E+01  0.1000E+01
    -18.349  0.0000E+00  0.0000E+00  0.1000E+01  0.1000E+01
    -18.246  0.0000E+00  0.0000E+00  0.1000E+01  0.1000E+01
    -18.144  0.0000E+00  0.0000E+00  0.1000E+01  0.1000E+01
    -18.041  0.0000E+00  0.0000E+00  0.1000E+01  0.1000E+01
    -17.939  0.0000E+00  0.0000E+00  0.1000E+01  0.1000E+01
    -17.836  0.0000E+00  0.0000E+00  0.1000E+01  0.1000E+01
    -17.734  0.0000E+00  0.0000E+00  0.1000E+01  0.1000E+01
    -17.631  0.0000E+00  0.0000E+00  0.1000E+01  0.1000E+01
    -17.529  0.0000E+00  0.0000E+00  0.1000E+01  0.1000E+01
    -17.426  0.0000E+00  0.0000E+00  0.1000E+01  0.1000E+01
    -17.324  0.0000E+00  0.0000E+00  0.1000E+01  0.1000E+01
    -17.221  0.0000E+00  0.0000E+00  0.1000E+01  0.1000E+01
    -17.119  0.0000E+00  0.0000E+00  0.1000E+01  0.1000E+01
    -17.016  0.0000E+00  0.0000E+00  0.1000E+01  0.1000E+01
    -16.914  0.0000E+00  0.0000E+00  0.1000E+01  0.1000E+01
    -16.811  0.0000E+00  0.0000E+00  0.1000E+01  0.1000E+01
    -16.709  0.0000E+00  0.0000E+00  0.1000E+01  0.1000E+01
    -16.606  0.0000E+00  0.0000E+00  0.1000E+01  0.1000E+01
    -16.504  0.0000E+00  0.0000E+00  0.1000E+01  0.1000E+01
    -16.401  0.0000E+00  0.0000E+00  0.1000E+01  0.1000E+01
    -16.299  0.0000E+00  0.0000E+00  0.1000E+01  0.1000E+01
    -16.196  0.0000E+00  0.0000E+00  0.1000E+01  0.1000E+01
    -16.094  0.0000E+00  0.0000E+00  0.1000E+01  0.1000E+01
    -15.991  0.0000E+00  0.0000E+00  0.1000E+01  0.1000E+01
    -15.889  0.0000E+00  0.0000E+00  0.1000E+01  0.1000E+01
    -15.786  0.0000E+00  0.0000E+00  0.1000E+01  0.1000E+01
    -15.684  0.0000E+00  0.0000E+00  0.1000E+01  0.1000E+01
    -15.581  0.0000E+00  0.0000E+00  0.1000E+01  0.1000E+01
    -15.479  0.0000E+00  0.0000E+00  0.1000E+01  0.1000E+01
    -15.376  0.0000E+00  0.0000E+00  0.1000E+01  0.1000E+01
    -15.274  0.0000E+00  0.0000E+00  0.1000E+01  0.1000E+01
    -15.171  0.0000E+00  0.0000E+00  0.1000E+01  0.1000E+01
    -15.069  0.0000E+00  0.0000E+00  0.1000E+01  0.1000E+01
    -14.966  0.0000E+00  0.0000E+00  0.1000E+01  0.1000E+01
    -14.864  0.0000E+00  0.0000E+00  0.1000E+01  0.1000E+01
    -14.761  0.0000E+00  0.0000E+00  0.1000E+01  0.1000E+01
    -14.659  0.0000E+00  0.0000E+00  0.1000E+01  0.1000E+01
    -14.556  0.0000E+00  0.0000E+00  0.1000E+01  0.1000E+01
    -14.453  0.0000E+00  0.0000E+00  0.1000E+01  0.1000E+01
    -14.351  0.0000E+00  0.0000E+00  0.1000E+01  0.1000E+01
    -14.248  0.0000E+00  0.0000E+00  0.1000E+01  0.1000E+01
    -14.146  0.0000E+00  0.0000E+00  0.1000E+01  0.1000E+01
    -14.043  0.0000E+00  0.0000E+00  0.1000E+01  0.1000E+01
    -13.941  0.0000E+00  0.0000E+00  0.1000E+01  0.1000E+01
    -13.838  0.0000E+00  0.0000E+00  0.1000E+01  0.1000E+01
    -13.736  0.0000E+00  0.0000E+00  0.1000E+01  0.1000E+01
    -13.633  0.0000E+00  0.0000E+00  0.1000E+01  0.1000E+01
    -13.531  0.0000E+00  0.0000E+00  0.1000E+01  0.1000E+01
    -13.428  0.0000E+00  0.0000E+00  0.1000E+01  0.1000E+01
    -13.326  0.0000E+00  0.0000E+00  0.1000E+01  0.1000E+01
    -13.223  0.0000E+00  0.0000E+00  0.1000E+01  0.1000E+01
    -13.121  0.0000E+00  0.0000E+00  0.1000E+01  0.1000E+01
    -13.018  0.0000E+00  0.0000E+00  0.1000E+01  0.1000E+01
    -12.916  0.0000E+00  0.0000E+00  0.1000E+01  0.1000E+01
    -12.813  0.0000E+00  0.0000E+00  0.1000E+01  0.1000E+01
    -12.711  0.0000E+00  0.0000E+00  0.1000E+01  0.1000E+01
    -12.608  0.0000E+00  0.0000E+00  0.1000E+01  0.1000E+01
    -12.506  0.0000E+00  0.0000E+00  0.1000E+01  0.1000E+01
    -12.403  0.0000E+00  0.0000E+00  0.1000E+01  0.1000E+01
    -12.301  0.0000E+00  0.0000E+00  0.1000E+01  0.1000E+01
    -12.198  0.0000E+00  0.0000E+00  0.1000E+01  0.1000E+01
    -12.096  0.0000E+00  0.0000E+00  0.1000E+01  0.1000E+01
    -11.993  0.0000E+00  0.0000E+00  0.1000E+01  0.1000E+01
    -11.891  0.0000E+00  0.0000E+00  0.1000E+01  0.1000E+01
    -11.788  0.0000E+00  0.0000E+00  0.1000E+01  0.1000E+01
    -11.686  0.0000E+00  0.0000E+00  0.1000E+01  0.1000E+01
    -11.583  0.0000E+00  0.0000E+00  0.1000E+01  0.1000E+01
    -11.481  0.0000E+00  0.0000E+00  0.1000E+01  0.1000E+01
    -11.378  0.0000E+00  0.0000E+00  0.1000E+01  0.1000E+01
    -11.276  0.6336E-13  0.0000E+00  0.1000E+01  0.1000E+01
    -11.173  0.1588E-10  0.0000E+00  0.1000E+01  0.1000E+01
    -11.071  0.2351E-08  0.0000E+00  0.1000E+01  0.1000E+01
    -10.968  0.2078E-06  0.0000E+00  0.1000E+01  0.1000E+01
    -10.866  0.1098E-04  0.0000E+00  0.1000E+01  0.1000E+01
    -10.763  0.3473E-03  0.0000E+00  0.1000E+01  0.1000E+01
    -10.661  0.6590E-02  0.0000E+00  0.1001E+01  0.1000E+01
    -10.558  0.7515E-01  0.0000E+00  0.1008E+01  0.1000E+01
    -10.456  0.5159E+00  0.0000E+00  0.1061E+01  0.1000E+01
    -10.353  0.2136E+01  0.0000E+00  0.1280E+01  0.1000E+01
    -10.251  0.5339E+01  0.0000E+00  0.1828E+01  0.1000E+01
    -10.148  0.8069E+01  0.0000E+00  0.2655E+01  0.1000E+01
    -10.046  0.7375E+01  0.0000E+00  0.3411E+01  0.1000E+01
     -9.943  0.4077E+01  0.0000E+00  0.3829E+01  0.1000E+01
     -9.841  0.1362E+01  0.0000E+00  0.3968E+01  0.1000E+01
     -9.738  0.2746E+00  0.0000E+00  0.3996E+01  0.1000E+01
     -9.636  0.3336E-01  0.0000E+00  0.4000E+01  0.1000E+01
     -9.533  0.2439E-02  0.0000E+00  0.4000E+01  0.1000E+01
     -9.431  0.1071E-03  0.0000E+00  0.4000E+01  0.1000E+01
     -9.328  0.2818E-05  0.0000E+00  0.4000E+01  0.1000E+01
     -9.226  0.4438E-07  0.0000E+00  0.4000E+01  0.1000E+01
     -9.123  0.4176E-09  0.0000E+00  0.4000E+01  0.1000E+01
     -9.021  0.2346E-11  0.0000E+00  0.4000E+01  0.1000E+01
     -8.918  0.6498E-14  0.0000E+00  0.4000E+01  0.1000E+01
     -8.816  0.0000E+00  0.0000E+00  0.4000E+01  0.1000E+01
     -8.713  0.0000E+00  0.0000E+00  0.4000E+01  0.1000E+01
     -8.611  0.0000E+00  0.0000E+00  0.4000E+01  0.1000E+01
     -8.508  0.0000E+00  0.4874E-14  0.4000E+01  0.1000E+01
     -8.406  0.0000E+00  0.1326E-11  0.4000E+01  0.1000E+01
     -8.303  0.0000E+00  0.2494E-09  0.4000E+01  0.1000E+01
     -8.201  0.0000E+00  0.2797E-07  0.4000E+01  0.1000E+01
     -8.098  0.0000E+00  0.1874E-05  0.4000E+01  0.1000E+01
     -7.996  0.0000E+00  0.7510E-04  0.4000E+01  0.1000E+01
     -7.893  0.0000E+00  0.1804E-02  0.4000E+01  0.1000E+01
     -7.791  0.0000E+00  0.2602E-01  0.4000E+01  0.1003E+01
     -7.688  0.0000E+00  0.2257E+00  0.4000E+01  0.1026E+01
     -7.586  0.0000E+00  0.1180E+01  0.4000E+01  0.1147E+01
     -7.483  0.0000E+00  0.3723E+01  0.4000E+01  0.1529E+01
     -7.381  0.0000E+00  0.7099E+01  0.4000E+01  0.2256E+01
     -7.278  0.0000E+00  0.8184E+01  0.4000E+01  0.3095E+01
     -7.176  0.0000E+00  0.5706E+01  0.4000E+01  0.3680E+01
     -7.073  0.0000E+00  0.2405E+01  0.4000E+01  0.3927E+01
     -6.971  0.0000E+00  0.6124E+00  0.4000E+01  0.3989E+01
     -6.868  0.0000E+00  0.9403E-01  0.4000E+01  0.3999E+01
     -6.765  0.0000E+00  0.8694E-02  0.4000E+01  0.4000E+01
     -6.663  0.0000E+00  0.4831E-03  0.4000E+01  0.4000E+01
     -6.560  0.0000E+00  0.1611E-04  0.4000E+01  0.4000E+01
     -6.458  0.0000E+00  0.3216E-06  0.4000E+01  0.4000E+01
     -6.355  0.0000E+00  0.3839E-08  0.4000E+01  0.4000E+01
     -6.253  0.0000E+00  0.2736E-10  0.4000E+01  0.4000E+01
     -6.150  0.0000E+00  0.1170E-12  0.4000E+01  0.4000E+01
     -6.048  0.0000E+00  0.0000E+00  0.4000E+01  0.4000E+01
     -5.945  0.0000E+00  0.0000E+00  0.4000E+01  0.4000E+01
     -5.843  0.0000E+00  0.0000E+00  0.4000E+01  0.4000E+01
     -5.740  0.0000E+00  0.0000E+00  0.4000E+01  0.4000E+01
     -5.638  0.0000E+00  0.0000E+00  0.4000E+01  0.4000E+01
     -5.535  0.0000E+00  0.0000E+00  0.4000E+01  0.4000E+01
     -5.433  0.0000E+00  0.0000E+00  0.4000E+01  0.4000E+01
     -5.330  0.0000E+00  0.0000E+00  0.4000E+01  0.4000E+01
     -5.228  0.0000E+00  0.0000E+00  0.4000E+01  0.4000E+01
     -5.125  0.0000E+00  0.0000E+00  0.4000E+01  0.4000E+01
     -5.023  0.0000E+00  0.0000E+00  0.4000E+01  0.4000E+01
     -4.920  0.0000E+00  0.0000E+00  0.4000E+01  0.4000E+01
     -4.818  0.0000E+00  0.0000E+00  0.4000E+01  0.4000E+01
     -4.715  0.0000E+00  0.0000E+00  0.4000E+01  0.4000E+01
     -4.613  0.0000E+00  0.0000E+00  0.4000E+01  0.4000E+01
     -4.510  0.0000E+00  0.0000E+00  0.4000E+01  0.4000E+01
     -4.408  0.0000E+00  0.0000E+00  0.4000E+01  0.4000E+01
     -4.305  0.0000E+00  0.0000E+00  0.4000E+01  0.4000E+01
     -4.203  0.0000E+00  0.0000E+00  0.4000E+01  0.4000E+01
     -4.100  0.0000E+00  0.0000E+00  0.4000E+01  0.4000E+01
     -3.998  0.0000E+00  0.0000E+00  0.4000E+01  0.4000E+01
     -3.895  0.0000E+00  0.0000E+00  0.4000E+01  0.4000E+01
     -3.793  0.0000E+00  0.0000E+00  0.4000E+01  0.4000E+01
     -3.690  0.0000E+00  0.0000E+00  0.4000E+01  0.4000E+01
     -3.588  0.0000E+00  0.0000E+00  0.4000E+01  0.4000E+01
     -3.485  0.0000E+00  0.0000E+00  0.4000E+01  0.4000E+01
     -3.383  0.0000E+00  0.0000E+00  0.4000E+01  0.4000E+01
     -3.280  0.0000E+00  0.0000E+00  0.4000E+01  0.4000E+01
     -3.178  0.0000E+00  0.0000E+00  0.4000E+01  0.4000E+01
     -3.075  0.0000E+00  0.0000E+00  0.4000E+01  0.4000E+01
     -2.973  0.0000E+00  0.0000E+00  0.4000E+01  0.4000E+01
     -2.870  0.0000E+00  0.0000E+00  0.4000E+01  0.4000E+01
     -2.768  0.0000E+00  0.0000E+00  0.4000E+01  0.4000E+01
     -2.665  0.0000E+00  0.0000E+00  0.4000E+01  0.4000E+01
     -2.563  0.0000E+00  0.0000E+00  0.4000E+01  0.4000E+01
     -2.460  0.0000E+00  0.0000E+00  0.4000E+01  0.4000E+01
     -2.358  0.0000E+00  0.0000E+00  0.4000E+01  0.4000E+01
     -2.255  0.0000E+00  0.0000E+00  0.4000E+01  0.4000E+01
     -2.153  0.0000E+00  0.0000E+00  0.4000E+01  0.4000E+01
     -2.050  0.0000E+00  0.0000E+00  0.4000E+01  0.4000E+01
     -1.948  0.0000E+00  0.0000E+00  0.4000E+01  0.4000E+01
     -1.845  0.0000E+00  0.0000E+00  0.4000E+01  0.4000E+01
     -1.743  0.0000E+00  0.0000E+00  0.4000E+01  0.4000E+01
     -1.640  0.0000E+00  0.0000E+00  0.4000E+01  0.4000E+01
     -1.538  0.2166E-13  0.5415E-15  0.4000E+01  0.4000E+01
     -1.435  0.5382E-11  0.1332E-12  0.4000E+01  0.4000E+01
     -1.333  0.7956E-09  0.2803E-10  0.4000E+01  0.4000E+01
     -1.230  0.7020E-07  0.3514E-08  0.4000E+01  0.4000E+01
     -1.128  0.3703E-05  0.2631E-06  0.4000E+01  0.4000E+01
     -1.025  0.1170E-03  0.1178E-04  0.4000E+01  0.4000E+01
     -0.923  0.2216E-02  0.3160E-03  0.4000E+01  0.4000E+01
     -0.820  0.2523E-01  0.5088E-02  0.4003E+01  0.4001E+01
     -0.718  0.1729E+00  0.4926E-01  0.4021E+01  0.4006E+01
     -0.615  0.7146E+00  0.2872E+00  0.4094E+01  0.4035E+01
     -0.513  0.1784E+01  0.1011E+01  0.4277E+01  0.4139E+01
     -0.410  0.2691E+01  0.2148E+01  0.4552E+01  0.4359E+01
     -0.308  0.2456E+01  0.2760E+01  0.4804E+01  0.4642E+01
     -0.205  0.1355E+01  0.2146E+01  0.4943E+01  0.4862E+01
     -0.103  0.4519E+00  0.1008E+01  0.4989E+01  0.4965E+01
      0.000  0.9098E-01  0.2863E+00  0.4999E+01  0.4994E+01
      0.102  0.1104E-01  0.4904E-01  0.5000E+01  0.4999E+01
      0.205  0.8056E-03  0.5060E-02  0.5000E+01  0.5000E+01
      0.307  0.3531E-04  0.3139E-03  0.5000E+01  0.5000E+01
      0.410  0.9277E-06  0.1169E-04  0.5000E+01  0.5000E+01
      0.512  0.1459E-07  0.2607E-06  0.5000E+01  0.5000E+01
      0.615  0.1370E-09  0.3479E-08  0.5000E+01  0.5000E+01
      0.717  0.7701E-12  0.2772E-10  0.5000E+01  0.5000E+01
      0.820  0.2237E-12  0.1338E-12  0.5000E+01  0.5000E+01
      0.923  0.4790E-10  0.4224E-12  0.5000E+01  0.5000E+01
      1.025  0.6178E-08  0.8840E-10  0.5000E+01  0.5000E+01
      1.128  0.4771E-06  0.1103E-07  0.5000E+01  0.5000E+01
      1.230  0.2212E-04  0.8213E-06  0.5000E+01  0.5000E+01
      1.333  0.6171E-03  0.3659E-04  0.5000E+01  0.5000E+01
      1.435  0.1039E-01  0.9767E-03  0.5001E+01  0.5000E+01
      1.538  0.1059E+00  0.1565E-01  0.5012E+01  0.5002E+01
      1.640  0.6556E+00  0.1507E+00  0.5079E+01  0.5017E+01
      1.743  0.2474E+01  0.8746E+00  0.5333E+01  0.5107E+01
      1.845  0.5705E+01  0.3062E+01  0.5918E+01  0.5421E+01
      1.948  0.8066E+01  0.6476E+01  0.6744E+01  0.6084E+01
      2.050  0.7003E+01  0.8281E+01  0.7462E+01  0.6933E+01
      2.153  0.3739E+01  0.6405E+01  0.7845E+01  0.7590E+01
      2.255  0.1227E+01  0.2995E+01  0.7971E+01  0.7897E+01
      2.358  0.2476E+00  0.8462E+00  0.7997E+01  0.7984E+01
      2.460  0.3064E-01  0.1442E+00  0.8000E+01  0.7998E+01
      2.563  0.2320E-02  0.1481E-01  0.8000E+01  0.8000E+01
      2.665  0.1072E-03  0.9141E-03  0.8000E+01  0.8000E+01
      2.768  0.3008E-05  0.3386E-04  0.8000E+01  0.8000E+01
      2.870  0.5116E-07  0.7516E-06  0.8000E+01  0.8000E+01
      2.973  0.5252E-09  0.9978E-08  0.8000E+01  0.8000E+01
      3.075  0.3247E-11  0.7910E-10  0.8000E+01  0.8000E+01
      3.178  0.1083E-13  0.3769E-12  0.8000E+01  0.8000E+01
      3.280  0.0000E+00  0.0000E+00  0.8000E+01  0.8000E+01
      3.383  0.0000E+00  0.0000E+00  0.8000E+01  0.8000E+01
      3.485  0.0000E+00  0.0000E+00  0.8000E+01  0.8000E+01
      3.588  0.0000E+00  0.0000E+00  0.8000E+01  0.8000E+01
      3.690  0.0000E+00  0.0000E+00  0.8000E+01  0.8000E+01
      3.793  0.0000E+00  0.0000E+00  0.8000E+01  0.8000E+01
      3.895  0.0000E+00  0.0000E+00  0.8000E+01  0.8000E+01
      3.998  0.0000E+00  0.0000E+00  0.8000E+01  0.8000E+01
