    1    1    1    2
  0.5120000E+03  0.8000000E-09  0.8000000E-09  0.8000000E-09  0.5000000E-15
  1.000000000000000E-004
  CAR 
 O atom in a box                         
      6      1      8
 
  0.0000000E+00  0.0000000E+00  0.0000000E+00  0.1000000E+01
    1      -24.754307    -21.796189
    2      -10.166545     -7.351535
    3      -10.166545     -7.351535
    4      -10.166545     -7.351535
    5       -0.428734     -0.358937
    6        1.899988      1.997712
    7        1.899988      1.997712
    8        1.954382      1.997714
