       N       E                     dE             d eps       ncg     rms          rms(c)
DAV:   1    -0.155640084399E+01   -0.15564E+01   -0.18284E-08    16   0.978E-04    0.117E-04
DAV:   2    -0.155640084471E+01   -0.72822E-09   -0.15048E-09    16   0.276E-04
   1 F= -.15564008E+01 E0= -.14792697E+01  d E =-.154262E+00  mag=     2.0000
