<?xml version="1.0" encoding="ISO-8859-1"?>
<modeling>
 <generator>
  <i name="program" type="string">vasp </i>
  <i name="version" type="string">5.3.5  </i>
  <i name="subversion" type="string">31Mar14 (build Dec 17 2014 13:12:56) complex                          serial </i>
  <i name="platform" type="string">LinuxIFC_ath </i>
  <i name="date" type="string">2015 06 29 </i>
  <i name="time" type="string">09:49:14 </i>
 </generator>
 <incar>
  <i type="string" name="SYSTEM"> O atom in a box</i>
  <i type="string" name="PREC">normal</i>
  <i type="int" name="ISPIN">     2</i>
  <i type="int" name="ISMEAR">     0</i>
 </incar>
 <kpoints>
  <varray name="kpointlist" >
   <v>       0.00000000       0.00000000       0.00000000 </v>
  </varray>
  <varray name="weights" >
   <v>       1.00000000 </v>
  </varray>
 </kpoints>
 <parameters>
  <separator name="general" >
   <i type="string" name="SYSTEM">O atom in a box</i>
   <i type="logical" name="LCOMPAT"> F  </i>
  </separator>
  <separator name="electronic" >
   <i type="string" name="PREC">normal</i>
   <i name="ENMAX">    400.00000000</i>
   <i name="ENAUG">    605.39200000</i>
   <i name="EDIFF">      0.00010000</i>
   <i type="int" name="IALGO">    38</i>
   <i type="int" name="IWAVPR">     0</i>
   <i type="int" name="NBANDS">     8</i>
   <i name="NELECT">      6.00000000</i>
   <i type="int" name="TURBO">     0</i>
   <i type="int" name="IRESTART">     0</i>
   <i type="int" name="NREBOOT">     0</i>
   <i type="int" name="NMIN">     0</i>
   <i name="EREF">      0.00000000</i>
   <separator name="electronic smearing" >
    <i type="int" name="ISMEAR">     0</i>
    <i name="SIGMA">      0.20000000</i>
    <i name="KSPACING">      0.50000000</i>
    <i type="logical" name="KGAMMA"> T  </i>
   </separator>
   <separator name="electronic projectors" >
    <i type="logical" name="LREAL"> F  </i>
    <v name="ROPT">      0.00000000</v>
    <i type="int" name="LMAXPAW">  -100</i>
    <i type="int" name="LMAXMIX">     2</i>
    <i type="logical" name="NLSPLINE"> F  </i>
   </separator>
   <separator name="electronic startup" >
    <i type="int" name="ISTART">     1</i>
    <i type="int" name="ICHARG">     0</i>
    <i type="int" name="INIWAV">     1</i>
   </separator>
   <separator name="electronic spin" >
    <i type="int" name="ISPIN">     2</i>
    <i type="logical" name="LNONCOLLINEAR"> F  </i>
    <v name="MAGMOM">      1.00000000</v>
    <i name="NUPDOWN">     -1.00000000</i>
    <i type="logical" name="LSORBIT"> F  </i>
    <v name="SAXIS">      0.00000000      0.00000000      1.00000000</v>
    <i type="logical" name="LSPIRAL"> F  </i>
    <v name="QSPIRAL">      0.00000000      0.00000000      0.00000000</v>
    <i type="logical" name="LZEROZ"> F  </i>
   </separator>
   <separator name="electronic exchange-correlation" >
    <i type="logical" name="LASPH"> F  </i>
    <i type="logical" name="LMETAGGA"> F  </i>
   </separator>
   <separator name="electronic convergence" >
    <i type="int" name="NELM">    60</i>
    <i type="int" name="NELMDL">     0</i>
    <i type="int" name="NELMIN">     2</i>
    <i name="ENINI">    400.00000000</i>
    <separator name="electronic convergence detail" >
     <i type="logical" name="LDIAG"> T  </i>
     <i type="logical" name="LSUBROT"> F  </i>
     <i name="WEIMIN">      0.00000000</i>
     <i name="EBREAK">      0.00000313</i>
     <i name="DEPER">      0.30000000</i>
     <i type="int" name="NRMM">     4</i>
     <i name="TIME">      0.40000000</i>
    </separator>
   </separator>
   <separator name="electronic mixer" >
    <i name="AMIX">      0.40000000</i>
    <i name="BMIX">      1.00000000</i>
    <i name="AMIN">      0.10000000</i>
    <i name="AMIX_MAG">      1.60000000</i>
    <i name="BMIX_MAG">      1.00000000</i>
    <separator name="electronic mixer details" >
     <i type="int" name="IMIX">     4</i>
     <i type="int" name="MAXMIX">   -45</i>
     <i name="WC">    100.00000000</i>
     <i type="int" name="INIMIX">     1</i>
     <i type="int" name="MIXPRE">     1</i>
     <i type="int" name="MREMOVE">     5</i>
    </separator>
   </separator>
   <separator name="electronic dipolcorrection" >
    <i type="logical" name="LDIPOL"> F  </i>
    <i type="logical" name="LMONO"> F  </i>
    <i type="int" name="IDIPOL">     0</i>
    <i name="EPSILON">      1.00000000</i>
    <v name="DIPOL">   -100.00000000   -100.00000000   -100.00000000</v>
    <i name="EFIELD">      0.00000000</i>
   </separator>
  </separator>
  <separator name="grids" >
   <i type="int" name="NGX">    40</i>
   <i type="int" name="NGY">    40</i>
   <i type="int" name="NGZ">    40</i>
   <i type="int" name="NGXF">    80</i>
   <i type="int" name="NGYF">    80</i>
   <i type="int" name="NGZF">    80</i>
   <i type="logical" name="ADDGRID"> F  </i>
  </separator>
  <separator name="ionic" >
   <i type="int" name="NSW">     0</i>
   <i type="int" name="IBRION">    -1</i>
   <i type="int" name="ISIF">     2</i>
   <i name="PSTRESS">      0.00000000</i>
   <i name="EDIFFG">      0.00100000</i>
   <i type="int" name="NFREE">     0</i>
   <i name="POTIM">      0.50000000</i>
   <i name="SMASS">     -3.00000000</i>
   <i name="SCALEE">      1.00000000</i>
  </separator>
  <separator name="ionic md" >
   <i name="TEBEG">      0.00010000</i>
   <i name="TEEND">      0.00010000</i>
   <i type="int" name="NBLOCK">     1</i>
   <i type="int" name="KBLOCK">     1</i>
   <i type="int" name="NPACO">   256</i>
   <i name="APACO">     16.00000000</i>
  </separator>
  <separator name="symmetry" >
   <i type="int" name="ISYM">     2</i>
   <i name="SYMPREC">      0.00001000</i>
  </separator>
  <separator name="dos" >
   <i type="logical" name="LORBIT"> F  </i>
   <v name="RWIGS">     -1.00000000</v>
   <i type="int" name="NEDOS">   301</i>
   <i name="EMIN">     10.00000000</i>
   <i name="EMAX">    -10.00000000</i>
   <i name="EFERMI">      0.00000000</i>
  </separator>
  <separator name="writing" >
   <i type="int" name="NWRITE">     2</i>
   <i type="logical" name="LWAVE"> T  </i>
   <i type="logical" name="LCHARG"> T  </i>
   <i type="logical" name="LPARD"> F  </i>
   <i type="logical" name="LVTOT"> F  </i>
   <i type="logical" name="LVHAR"> F  </i>
   <i type="logical" name="LELF"> F  </i>
   <i type="logical" name="LOPTICS"> F  </i>
   <v name="STM">      0.00000000      0.00000000      0.00000000      0.00000000      0.00000000      0.00000000      0.00000000</v>
  </separator>
  <separator name="performance" >
   <i type="int" name="NPAR">     1</i>
   <i type="int" name="NSIM">     4</i>
   <i type="int" name="NBLK">    -1</i>
   <i type="logical" name="LPLANE"> T  </i>
   <i type="logical" name="LSCALAPACK"> F  </i>
   <i type="logical" name="LSCAAWARE"> F  </i>
   <i type="logical" name="LSCALU"> F  </i>
   <i type="logical" name="LASYNC"> F  </i>
   <i type="logical" name="LORBITALREAL"> F  </i>
  </separator>
  <separator name="miscellaneous" >
   <i type="int" name="IDIOT">     3</i>
   <i type="logical" name="LMUSIC"> F  </i>
   <v name="POMASS">     16.00000000</v>
   <v name="DARWINR">      0.00000000</v>
   <v name="DARWINV">      1.00000000</v>
   <i type="logical" name="LCORR"> T  </i>
  </separator>
  <i type="logical" name="GGA_COMPAT"> T  </i>
  <i type="logical" name="LBERRY"> F  </i>
  <i type="int" name="ICORELEVEL">     0</i>
  <i type="logical" name="LDAU"> F  </i>
  <i type="int" name="I_CONSTRAINED_M">     0</i>
  <separator name="electronic exchange-correlation" >
   <i type="string" name="GGA">--</i>
   <i type="int" name="VOSKOWN">     0</i>
   <i type="logical" name="LHFCALC"> F  </i>
   <i type="string" name="PRECFOCK"></i>
   <i type="logical" name="LSYMGRAD"> F  </i>
   <i type="logical" name="LHFONE"> F  </i>
   <i type="logical" name="LRHFCALC"> F  </i>
   <i type="logical" name="LTHOMAS"> F  </i>
   <i type="logical" name="LMODELHF"> F  </i>
   <i name="ENCUT4O">     -1.00000000</i>
   <i type="int" name="EXXOEP">     0</i>
   <i type="int" name="FOURORBIT">     0</i>
   <i name="AEXX">      0.00000000</i>
   <i name="HFALPHA">      0.00000000</i>
   <i name="MCALPHA">      0.00000000</i>
   <i name="ALDAX">      1.00000000</i>
   <i name="AGGAX">      1.00000000</i>
   <i name="ALDAC">      1.00000000</i>
   <i name="AGGAC">      1.00000000</i>
   <i type="int" name="NKREDX">     1</i>
   <i type="int" name="NKREDY">     1</i>
   <i type="int" name="NKREDZ">     1</i>
   <i type="logical" name="SHIFTRED"> F  </i>
   <i type="logical" name="ODDONLY"> F  </i>
   <i type="logical" name="EVENONLY"> F  </i>
   <i type="int" name="LMAXFOCK">     0</i>
   <i type="int" name="NMAXFOCKAE">     0</i>
   <i type="logical" name="LFOCKAEDFT"> F  </i>
   <i name="HFSCREEN">      0.00000000</i>
   <i name="HFSCREENC">      0.00000000</i>
   <i type="int" name="NBANDSGWLOW">     0</i>
  </separator>
  <separator name="vdW DFT" >
   <i type="logical" name="LUSE_VDW"> F  </i>
   <i name="Zab_VDW">     -0.84910000</i>
   <i name="PARAM1">      0.12340000</i>
   <i name="PARAM2">      1.00000000</i>
   <i name="PARAM3">      0.00000000</i>
  </separator>
  <separator name="model GW" >
   <i type="int" name="MODEL_GW">     0</i>
   <i name="MODEL_EPS0">    307.20000000</i>
   <i name="MODEL_ALPHA">      1.00000000</i>
  </separator>
  <separator name="linear response parameters" >
   <i type="logical" name="LEPSILON"> F  </i>
   <i type="logical" name="LRPA"> F  </i>
   <i type="logical" name="LNABLA"> F  </i>
   <i type="logical" name="LVEL"> F  </i>
   <i type="int" name="KINTER">     0</i>
   <i name="CSHIFT">      0.10000000</i>
   <i name="OMEGAMAX">     -1.00000000</i>
   <i name="DEG_THRESHOLD">      0.00200000</i>
  </separator>
  <separator name="orbital magnetization" >
   <i type="logical" name="NUCIND"> F  </i>
   <v name="MAGPOS">      0.00000000      0.00000000      0.00000000</v>
   <i type="logical" name="LNICSALL"> T  </i>
   <i type="logical" name="ORBITALMAG"> F  </i>
   <i type="logical" name="LMAGBLOCH"> F  </i>
   <i type="logical" name="LCHIMAG"> F  </i>
   <i type="logical" name="LGAUGE"> T  </i>
   <i type="int" name="MAGATOM">     0</i>
   <v name="MAGDIPOL">      0.00000000      0.00000000      0.00000000</v>
   <v name="AVECCONST">      0.00000000      0.00000000      0.00000000</v>
  </separator>
  <separator name="response functions" >
   <i type="logical" name="LADDER"> F  </i>
   <i type="logical" name="LFXC"> F  </i>
   <i type="logical" name="LHARTREE"> T  </i>
   <i type="int" name="IBSE">     0</i>
   <i type="logical" name="LTCTE"> F  </i>
   <i type="logical" name="LTETE"> F  </i>
   <i type="logical" name="LTRIPLET"> F  </i>
   <i type="logical" name="LFXCEPS"> F  </i>
   <i type="logical" name="LFXHEG"> F  </i>
   <i type="logical" name="L2ORDER"> F  </i>
   <i type="logical" name="LUSEW"> F  </i>
   <i name="ENCUTGW">     -2.00000000</i>
   <i name="ENCUTGWSOFT">     -2.00000000</i>
   <i name="ENCUTLF">     -1.00000000</i>
   <i type="int" name="LMAXMP2">    -1</i>
   <i name="SCISSOR">      0.00000000</i>
   <i type="int" name="NOMEGA">     0</i>
   <i type="int" name="NOMEGAR">     0</i>
   <i type="int" name="NBANDSGW">    -1</i>
   <i type="int" name="NBANDSO">    -1</i>
   <i type="int" name="NBANDSV">    -1</i>
   <i type="int" name="NELM">     1</i>
   <i type="int" name="DIM">     3</i>
   <i type="int" name="ANTIRES">     0</i>
   <i name="OMEGAMAX">    -30.00000000</i>
   <i name="OMEGAMIN">    -30.00000000</i>
   <i name="OMEGATL">   -200.00000000</i>
   <i type="int" name="OMEGAGRID">     0</i>
   <i name="CSHIFT">     -0.10000000</i>
   <i type="logical" name="SELFENERGY"> F  </i>
   <i type="logical" name="LSPECTRAL"> F  </i>
   <i type="logical" name="ODDONLYGW"> F  </i>
   <i type="logical" name="EVENONLYGW"> F  </i>
   <i type="int" name="NKREDLFX">     1</i>
   <i type="int" name="NKREDLFY">     1</i>
   <i type="int" name="NKREDLFZ">     1</i>
   <i type="int" name="MAXMEM">  1800</i>
   <i type="int" name="TELESCOPE">     0</i>
   <i type="int" name="TAUPAR">     1</i>
  </separator>
  <separator name="External order field" >
   <i name="OFIELD_KAPPA">      0.00000000</i>
   <v name="OFIELD_K">      0.00000000      0.00000000      0.00000000</v>
   <i name="OFIELD_Q6_NEAR">      0.00000000</i>
   <i name="OFIELD_Q6_FAR">      0.00000000</i>
   <i name="OFIELD_A">      0.00000000</i>
  </separator>
 </parameters>
 <atominfo>
  <atoms>       1 </atoms>
  <types>       1 </types>
  <array name="atoms" >
   <dimension dim="1">ion</dimension>
   <field type="string">element</field>
   <field type="int">atomtype</field>
   <set>
    <rc><c>O </c><c>   1</c></rc>
   </set>
  </array>
  <array name="atomtypes" >
   <dimension dim="1">type</dimension>
   <field type="int">atomspertype</field>
   <field type="string">element</field>
   <field>mass</field>
   <field>valence</field>
   <field type="string">pseudopotential</field>
   <set>
    <rc><c>   1</c><c>O </c><c>     16.00000000</c><c>      6.00000000</c><c>  PAW O 22Mar2012                       </c></rc>
   </set>
  </array>
 </atominfo>
 <structure name="initialpos" >
  <crystal>
   <varray name="basis" >
    <v>       8.00000000       0.00000000       0.00000000 </v>
    <v>       0.00000000       8.00000000       0.00000000 </v>
    <v>       0.00000000       0.00000000       8.00000000 </v>
   </varray>
   <i name="volume">    512.00000000 </i>
   <varray name="rec_basis" >
    <v>       0.12500000       0.00000000       0.00000000 </v>
    <v>       0.00000000       0.12500000       0.00000000 </v>
    <v>       0.00000000       0.00000000       0.12500000 </v>
   </varray>
  </crystal>
  <varray name="positions" >
   <v>       0.00000000       0.00000000       0.00000000 </v>
  </varray>
 </structure>
 <calculation>
  <scstep>
   <time name="dav">    0.28    0.28</time>
   <time name="total">    0.76    0.76</time>
   <energy>
    <i name="alphaZ">      0.26638017 </i>
    <i name="ewald">    -91.92708002 </i>
    <i name="hartreedc">   -281.92437190 </i>
    <i name="XCdc">     27.25737992 </i>
    <i name="pawpsdc">    358.49609294 </i>
    <i name="pawaedc">   -360.49365841 </i>
    <i name="eentropy">     -0.15426232 </i>
    <i name="bandstr">    -84.40186593 </i>
    <i name="atom">    431.32498472 </i>
    <i name="e_fr_energy">     -1.55640084 </i>
    <i name="e_wo_entrp">     -1.40213852 </i>
    <i name="e_0_energy">     -1.47926968 </i>
   </energy>
  </scstep>
  <scstep>
   <time name="dav">    0.28    0.28</time>
   <time name="total">    0.57    0.57</time>
   <energy>
    <i name="alphaZ">      0.26638017 </i>
    <i name="ewald">    -91.92708002 </i>
    <i name="hartreedc">   -281.92458471 </i>
    <i name="XCdc">     27.25739773 </i>
    <i name="pawpsdc">    358.49599832 </i>
    <i name="pawaedc">   -360.49357016 </i>
    <i name="eentropy">     -0.15426232 </i>
    <i name="bandstr">    -84.40166456 </i>
    <i name="atom">    431.32498472 </i>
    <i name="e_fr_energy">     -1.55640084 </i>
    <i name="e_wo_entrp">     -1.40213852 </i>
    <i name="e_0_energy">     -1.47926968 </i>
   </energy>
  </scstep>
  <structure>
   <crystal>
    <varray name="basis" >
     <v>       8.00000000       0.00000000       0.00000000 </v>
     <v>       0.00000000       8.00000000       0.00000000 </v>
     <v>       0.00000000       0.00000000       8.00000000 </v>
    </varray>
    <i name="volume">    512.00000000 </i>
    <varray name="rec_basis" >
     <v>       0.12500000       0.00000000       0.00000000 </v>
     <v>       0.00000000       0.12500000       0.00000000 </v>
     <v>       0.00000000       0.00000000       0.12500000 </v>
    </varray>
   </crystal>
   <varray name="positions" >
    <v>       0.00000000       0.00000000       0.00000000 </v>
   </varray>
  </structure>
  <varray name="forces" >
   <v>       0.00000000       0.00000000       0.00000000 </v>
  </varray>
  <varray name="stress" >
   <v>      -2.41887770       0.00000000       0.00000000 </v>
   <v>       0.00000000      -2.41887770       0.00000000 </v>
   <v>       0.00000000       0.00000000      -2.41887770 </v>
  </varray>
  <energy>
   <i name="e_fr_energy">     -1.55640084 </i>
   <i name="e_wo_entrp">     -1.47926968 </i>
   <i name="e_0_energy">     -0.15426232 </i>
  </energy>
  <time name="totalsc">    4.44    4.47</time>
  <eigenvalues>
   <array>
    <dimension dim="1">band</dimension>
    <dimension dim="2">kpoint</dimension>
    <dimension dim="3">spin</dimension>
    <field>eigene</field>
    <field>occ</field>
    <set>
     <set comment="spin 1">
      <set comment="kpoint 1">
       <r>  -24.7543    1.0000 </r>
       <r>  -10.1665    1.0000 </r>
       <r>  -10.1665    1.0000 </r>
       <r>  -10.1665    1.0000 </r>
       <r>   -0.4287    0.0000 </r>
       <r>    1.9000    0.0000 </r>
       <r>    1.9000    0.0000 </r>
       <r>    1.9544    0.0000 </r>
      </set>
     </set>
     <set comment="spin 2">
      <set comment="kpoint 1">
       <r>  -21.7962    1.0000 </r>
       <r>   -7.3515    0.3333 </r>
       <r>   -7.3515    0.3333 </r>
       <r>   -7.3515    0.3333 </r>
       <r>   -0.3589    0.0000 </r>
       <r>    1.9977    0.0000 </r>
       <r>    1.9977    0.0000 </r>
       <r>    1.9977    0.0000 </r>
      </set>
     </set>
    </set>
   </array>
  </eigenvalues>
  <separator name="orbital magnetization" >
   <v name="MAGDIPOLOUT">      0.00000000      0.00000000      0.00000000</v>
  </separator>
  <dos>
   <i name="efermi">     -7.41244884 </i>
   <total>
    <array>
     <dimension dim="1">gridpoints</dimension>
     <dimension dim="2">spin</dimension>
     <field>energy</field>
     <field>total</field>
     <field>integrated</field>
     <set>
      <set comment="spin 1">
       <r>   -26.7543     0.0000     0.0000 </r>
       <r>   -26.6518     0.0000     0.0000 </r>
       <r>   -26.5493     0.0000     0.0000 </r>
       <r>   -26.4468     0.0000     0.0000 </r>
       <r>   -26.3443     0.0000     0.0000 </r>
       <r>   -26.2418     0.0000     0.0000 </r>
       <r>   -26.1393     0.0000     0.0000 </r>
       <r>   -26.0368     0.0000     0.0000 </r>
       <r>   -25.9343     0.0000     0.0000 </r>
       <r>   -25.8317     0.0000     0.0000 </r>
       <r>   -25.7292     0.0000     0.0000 </r>
       <r>   -25.6267     0.0000     0.0000 </r>
       <r>   -25.5242     0.0000     0.0000 </r>
       <r>   -25.4217     0.0000     0.0000 </r>
       <r>   -25.3192     0.0003     0.0000 </r>
       <r>   -25.2167     0.0049     0.0005 </r>
       <r>   -25.1142     0.0481     0.0055 </r>
       <r>   -25.0117     0.2821     0.0344 </r>
       <r>   -24.9092     0.9984     0.1367 </r>
       <r>   -24.8067     2.1349     0.3556 </r>
       <r>   -24.7042     2.7603     0.6385 </r>
       <r>   -24.6017     2.1585     0.8598 </r>
       <r>   -24.4992     1.0206     0.9644 </r>
       <r>   -24.3967     0.2915     0.9943 </r>
       <r>   -24.2941     0.0502     0.9994 </r>
       <r>   -24.1916     0.0052     1.0000 </r>
       <r>   -24.0891     0.0003     1.0000 </r>
       <r>   -23.9866     0.0000     1.0000 </r>
       <r>   -23.8841     0.0000     1.0000 </r>
       <r>   -23.7816     0.0000     1.0000 </r>
       <r>   -23.6791     0.0000     1.0000 </r>
       <r>   -23.5766     0.0000     1.0000 </r>
       <r>   -23.4741     0.0000     1.0000 </r>
       <r>   -23.3716     0.0000     1.0000 </r>
       <r>   -23.2691     0.0000     1.0000 </r>
       <r>   -23.1666     0.0000     1.0000 </r>
       <r>   -23.0641     0.0000     1.0000 </r>
       <r>   -22.9616     0.0000     1.0000 </r>
       <r>   -22.8591     0.0000     1.0000 </r>
       <r>   -22.7565     0.0000     1.0000 </r>
       <r>   -22.6540     0.0000     1.0000 </r>
       <r>   -22.5515     0.0000     1.0000 </r>
       <r>   -22.4490     0.0000     1.0000 </r>
       <r>   -22.3465     0.0000     1.0000 </r>
       <r>   -22.2440     0.0000     1.0000 </r>
       <r>   -22.1415     0.0000     1.0000 </r>
       <r>   -22.0390     0.0000     1.0000 </r>
       <r>   -21.9365     0.0000     1.0000 </r>
       <r>   -21.8340     0.0000     1.0000 </r>
       <r>   -21.7315     0.0000     1.0000 </r>
       <r>   -21.6290     0.0000     1.0000 </r>
       <r>   -21.5265     0.0000     1.0000 </r>
       <r>   -21.4240     0.0000     1.0000 </r>
       <r>   -21.3214     0.0000     1.0000 </r>
       <r>   -21.2189     0.0000     1.0000 </r>
       <r>   -21.1164     0.0000     1.0000 </r>
       <r>   -21.0139     0.0000     1.0000 </r>
       <r>   -20.9114     0.0000     1.0000 </r>
       <r>   -20.8089     0.0000     1.0000 </r>
       <r>   -20.7064     0.0000     1.0000 </r>
       <r>   -20.6039     0.0000     1.0000 </r>
       <r>   -20.5014     0.0000     1.0000 </r>
       <r>   -20.3989     0.0000     1.0000 </r>
       <r>   -20.2964     0.0000     1.0000 </r>
       <r>   -20.1939     0.0000     1.0000 </r>
       <r>   -20.0914     0.0000     1.0000 </r>
       <r>   -19.9889     0.0000     1.0000 </r>
       <r>   -19.8864     0.0000     1.0000 </r>
       <r>   -19.7838     0.0000     1.0000 </r>
       <r>   -19.6813     0.0000     1.0000 </r>
       <r>   -19.5788     0.0000     1.0000 </r>
       <r>   -19.4763     0.0000     1.0000 </r>
       <r>   -19.3738     0.0000     1.0000 </r>
       <r>   -19.2713     0.0000     1.0000 </r>
       <r>   -19.1688     0.0000     1.0000 </r>
       <r>   -19.0663     0.0000     1.0000 </r>
       <r>   -18.9638     0.0000     1.0000 </r>
       <r>   -18.8613     0.0000     1.0000 </r>
       <r>   -18.7588     0.0000     1.0000 </r>
       <r>   -18.6563     0.0000     1.0000 </r>
       <r>   -18.5538     0.0000     1.0000 </r>
       <r>   -18.4513     0.0000     1.0000 </r>
       <r>   -18.3488     0.0000     1.0000 </r>
       <r>   -18.2462     0.0000     1.0000 </r>
       <r>   -18.1437     0.0000     1.0000 </r>
       <r>   -18.0412     0.0000     1.0000 </r>
       <r>   -17.9387     0.0000     1.0000 </r>
       <r>   -17.8362     0.0000     1.0000 </r>
       <r>   -17.7337     0.0000     1.0000 </r>
       <r>   -17.6312     0.0000     1.0000 </r>
       <r>   -17.5287     0.0000     1.0000 </r>
       <r>   -17.4262     0.0000     1.0000 </r>
       <r>   -17.3237     0.0000     1.0000 </r>
       <r>   -17.2212     0.0000     1.0000 </r>
       <r>   -17.1187     0.0000     1.0000 </r>
       <r>   -17.0162     0.0000     1.0000 </r>
       <r>   -16.9137     0.0000     1.0000 </r>
       <r>   -16.8112     0.0000     1.0000 </r>
       <r>   -16.7086     0.0000     1.0000 </r>
       <r>   -16.6061     0.0000     1.0000 </r>
       <r>   -16.5036     0.0000     1.0000 </r>
       <r>   -16.4011     0.0000     1.0000 </r>
       <r>   -16.2986     0.0000     1.0000 </r>
       <r>   -16.1961     0.0000     1.0000 </r>
       <r>   -16.0936     0.0000     1.0000 </r>
       <r>   -15.9911     0.0000     1.0000 </r>
       <r>   -15.8886     0.0000     1.0000 </r>
       <r>   -15.7861     0.0000     1.0000 </r>
       <r>   -15.6836     0.0000     1.0000 </r>
       <r>   -15.5811     0.0000     1.0000 </r>
       <r>   -15.4786     0.0000     1.0000 </r>
       <r>   -15.3761     0.0000     1.0000 </r>
       <r>   -15.2736     0.0000     1.0000 </r>
       <r>   -15.1710     0.0000     1.0000 </r>
       <r>   -15.0685     0.0000     1.0000 </r>
       <r>   -14.9660     0.0000     1.0000 </r>
       <r>   -14.8635     0.0000     1.0000 </r>
       <r>   -14.7610     0.0000     1.0000 </r>
       <r>   -14.6585     0.0000     1.0000 </r>
       <r>   -14.5560     0.0000     1.0000 </r>
       <r>   -14.4535     0.0000     1.0000 </r>
       <r>   -14.3510     0.0000     1.0000 </r>
       <r>   -14.2485     0.0000     1.0000 </r>
       <r>   -14.1460     0.0000     1.0000 </r>
       <r>   -14.0435     0.0000     1.0000 </r>
       <r>   -13.9410     0.0000     1.0000 </r>
       <r>   -13.8385     0.0000     1.0000 </r>
       <r>   -13.7360     0.0000     1.0000 </r>
       <r>   -13.6334     0.0000     1.0000 </r>
       <r>   -13.5309     0.0000     1.0000 </r>
       <r>   -13.4284     0.0000     1.0000 </r>
       <r>   -13.3259     0.0000     1.0000 </r>
       <r>   -13.2234     0.0000     1.0000 </r>
       <r>   -13.1209     0.0000     1.0000 </r>
       <r>   -13.0184     0.0000     1.0000 </r>
       <r>   -12.9159     0.0000     1.0000 </r>
       <r>   -12.8134     0.0000     1.0000 </r>
       <r>   -12.7109     0.0000     1.0000 </r>
       <r>   -12.6084     0.0000     1.0000 </r>
       <r>   -12.5059     0.0000     1.0000 </r>
       <r>   -12.4034     0.0000     1.0000 </r>
       <r>   -12.3009     0.0000     1.0000 </r>
       <r>   -12.1984     0.0000     1.0000 </r>
       <r>   -12.0958     0.0000     1.0000 </r>
       <r>   -11.9933     0.0000     1.0000 </r>
       <r>   -11.8908     0.0000     1.0000 </r>
       <r>   -11.7883     0.0000     1.0000 </r>
       <r>   -11.6858     0.0000     1.0000 </r>
       <r>   -11.5833     0.0000     1.0000 </r>
       <r>   -11.4808     0.0000     1.0000 </r>
       <r>   -11.3783     0.0000     1.0000 </r>
       <r>   -11.2758     0.0000     1.0000 </r>
       <r>   -11.1733     0.0000     1.0000 </r>
       <r>   -11.0708     0.0000     1.0000 </r>
       <r>   -10.9683     0.0000     1.0000 </r>
       <r>   -10.8658     0.0000     1.0000 </r>
       <r>   -10.7633     0.0003     1.0000 </r>
       <r>   -10.6607     0.0066     1.0007 </r>
       <r>   -10.5582     0.0751     1.0084 </r>
       <r>   -10.4557     0.5159     1.0613 </r>
       <r>   -10.3532     2.1357     1.2802 </r>
       <r>   -10.2507     5.3393     1.8275 </r>
       <r>   -10.1482     8.0692     2.6547 </r>
       <r>   -10.0457     7.3754     3.4107 </r>
       <r>    -9.9432     4.0766     3.8286 </r>
       <r>    -9.8407     1.3617     3.9682 </r>
       <r>    -9.7382     0.2746     3.9963 </r>
       <r>    -9.6357     0.0334     3.9997 </r>
       <r>    -9.5332     0.0024     4.0000 </r>
       <r>    -9.4307     0.0001     4.0000 </r>
       <r>    -9.3282     0.0000     4.0000 </r>
       <r>    -9.2257     0.0000     4.0000 </r>
       <r>    -9.1231     0.0000     4.0000 </r>
       <r>    -9.0206     0.0000     4.0000 </r>
       <r>    -8.9181     0.0000     4.0000 </r>
       <r>    -8.8156     0.0000     4.0000 </r>
       <r>    -8.7131     0.0000     4.0000 </r>
       <r>    -8.6106     0.0000     4.0000 </r>
       <r>    -8.5081     0.0000     4.0000 </r>
       <r>    -8.4056     0.0000     4.0000 </r>
       <r>    -8.3031     0.0000     4.0000 </r>
       <r>    -8.2006     0.0000     4.0000 </r>
       <r>    -8.0981     0.0000     4.0000 </r>
       <r>    -7.9956     0.0000     4.0000 </r>
       <r>    -7.8931     0.0000     4.0000 </r>
       <r>    -7.7906     0.0000     4.0000 </r>
       <r>    -7.6881     0.0000     4.0000 </r>
       <r>    -7.5855     0.0000     4.0000 </r>
       <r>    -7.4830     0.0000     4.0000 </r>
       <r>    -7.3805     0.0000     4.0000 </r>
       <r>    -7.2780     0.0000     4.0000 </r>
       <r>    -7.1755     0.0000     4.0000 </r>
       <r>    -7.0730     0.0000     4.0000 </r>
       <r>    -6.9705     0.0000     4.0000 </r>
       <r>    -6.8680     0.0000     4.0000 </r>
       <r>    -6.7655     0.0000     4.0000 </r>
       <r>    -6.6630     0.0000     4.0000 </r>
       <r>    -6.5605     0.0000     4.0000 </r>
       <r>    -6.4580     0.0000     4.0000 </r>
       <r>    -6.3555     0.0000     4.0000 </r>
       <r>    -6.2530     0.0000     4.0000 </r>
       <r>    -6.1505     0.0000     4.0000 </r>
       <r>    -6.0479     0.0000     4.0000 </r>
       <r>    -5.9454     0.0000     4.0000 </r>
       <r>    -5.8429     0.0000     4.0000 </r>
       <r>    -5.7404     0.0000     4.0000 </r>
       <r>    -5.6379     0.0000     4.0000 </r>
       <r>    -5.5354     0.0000     4.0000 </r>
       <r>    -5.4329     0.0000     4.0000 </r>
       <r>    -5.3304     0.0000     4.0000 </r>
       <r>    -5.2279     0.0000     4.0000 </r>
       <r>    -5.1254     0.0000     4.0000 </r>
       <r>    -5.0229     0.0000     4.0000 </r>
       <r>    -4.9204     0.0000     4.0000 </r>
       <r>    -4.8179     0.0000     4.0000 </r>
       <r>    -4.7154     0.0000     4.0000 </r>
       <r>    -4.6129     0.0000     4.0000 </r>
       <r>    -4.5103     0.0000     4.0000 </r>
       <r>    -4.4078     0.0000     4.0000 </r>
       <r>    -4.3053     0.0000     4.0000 </r>
       <r>    -4.2028     0.0000     4.0000 </r>
       <r>    -4.1003     0.0000     4.0000 </r>
       <r>    -3.9978     0.0000     4.0000 </r>
       <r>    -3.8953     0.0000     4.0000 </r>
       <r>    -3.7928     0.0000     4.0000 </r>
       <r>    -3.6903     0.0000     4.0000 </r>
       <r>    -3.5878     0.0000     4.0000 </r>
       <r>    -3.4853     0.0000     4.0000 </r>
       <r>    -3.3828     0.0000     4.0000 </r>
       <r>    -3.2803     0.0000     4.0000 </r>
       <r>    -3.1778     0.0000     4.0000 </r>
       <r>    -3.0753     0.0000     4.0000 </r>
       <r>    -2.9727     0.0000     4.0000 </r>
       <r>    -2.8702     0.0000     4.0000 </r>
       <r>    -2.7677     0.0000     4.0000 </r>
       <r>    -2.6652     0.0000     4.0000 </r>
       <r>    -2.5627     0.0000     4.0000 </r>
       <r>    -2.4602     0.0000     4.0000 </r>
       <r>    -2.3577     0.0000     4.0000 </r>
       <r>    -2.2552     0.0000     4.0000 </r>
       <r>    -2.1527     0.0000     4.0000 </r>
       <r>    -2.0502     0.0000     4.0000 </r>
       <r>    -1.9477     0.0000     4.0000 </r>
       <r>    -1.8452     0.0000     4.0000 </r>
       <r>    -1.7427     0.0000     4.0000 </r>
       <r>    -1.6402     0.0000     4.0000 </r>
       <r>    -1.5377     0.0000     4.0000 </r>
       <r>    -1.4351     0.0000     4.0000 </r>
       <r>    -1.3326     0.0000     4.0000 </r>
       <r>    -1.2301     0.0000     4.0000 </r>
       <r>    -1.1276     0.0000     4.0000 </r>
       <r>    -1.0251     0.0001     4.0000 </r>
       <r>    -0.9226     0.0022     4.0002 </r>
       <r>    -0.8201     0.0252     4.0028 </r>
       <r>    -0.7176     0.1729     4.0205 </r>
       <r>    -0.6151     0.7146     4.0938 </r>
       <r>    -0.5126     1.7836     4.2766 </r>
       <r>    -0.4101     2.6911     4.5525 </r>
       <r>    -0.3076     2.4558     4.8042 </r>
       <r>    -0.2051     1.3552     4.9431 </r>
       <r>    -0.1026     0.4519     4.9895 </r>
       <r>     0.0000     0.0910     4.9988 </r>
       <r>     0.1025     0.0110     4.9999 </r>
       <r>     0.2050     0.0008     5.0000 </r>
       <r>     0.3075     0.0000     5.0000 </r>
       <r>     0.4100     0.0000     5.0000 </r>
       <r>     0.5125     0.0000     5.0000 </r>
       <r>     0.6150     0.0000     5.0000 </r>
       <r>     0.7175     0.0000     5.0000 </r>
       <r>     0.8200     0.0000     5.0000 </r>
       <r>     0.9225     0.0000     5.0000 </r>
       <r>     1.0250     0.0000     5.0000 </r>
       <r>     1.1275     0.0000     5.0000 </r>
       <r>     1.2300     0.0000     5.0000 </r>
       <r>     1.3325     0.0006     5.0001 </r>
       <r>     1.4350     0.0104     5.0011 </r>
       <r>     1.5376     0.1059     5.0120 </r>
       <r>     1.6401     0.6556     5.0792 </r>
       <r>     1.7426     2.4735     5.3327 </r>
       <r>     1.8451     5.7052     5.9176 </r>
       <r>     1.9476     8.0655     6.7443 </r>
       <r>     2.0501     7.0029     7.4622 </r>
       <r>     2.1526     3.7386     7.8454 </r>
       <r>     2.2551     1.2274     7.9712 </r>
       <r>     2.3576     0.2476     7.9966 </r>
       <r>     2.4601     0.0306     7.9998 </r>
       <r>     2.5626     0.0023     8.0000 </r>
       <r>     2.6651     0.0001     8.0000 </r>
       <r>     2.7676     0.0000     8.0000 </r>
       <r>     2.8701     0.0000     8.0000 </r>
       <r>     2.9726     0.0000     8.0000 </r>
       <r>     3.0752     0.0000     8.0000 </r>
       <r>     3.1777     0.0000     8.0000 </r>
       <r>     3.2802     0.0000     8.0000 </r>
       <r>     3.3827     0.0000     8.0000 </r>
       <r>     3.4852     0.0000     8.0000 </r>
       <r>     3.5877     0.0000     8.0000 </r>
       <r>     3.6902     0.0000     8.0000 </r>
       <r>     3.7927     0.0000     8.0000 </r>
       <r>     3.8952     0.0000     8.0000 </r>
       <r>     3.9977     0.0000     8.0000 </r>
      </set>
      <set comment="spin 2">
       <r>   -26.7543     0.0000     0.0000 </r>
       <r>   -26.6518     0.0000     0.0000 </r>
       <r>   -26.5493     0.0000     0.0000 </r>
       <r>   -26.4468     0.0000     0.0000 </r>
       <r>   -26.3443     0.0000     0.0000 </r>
       <r>   -26.2418     0.0000     0.0000 </r>
       <r>   -26.1393     0.0000     0.0000 </r>
       <r>   -26.0368     0.0000     0.0000 </r>
       <r>   -25.9343     0.0000     0.0000 </r>
       <r>   -25.8317     0.0000     0.0000 </r>
       <r>   -25.7292     0.0000     0.0000 </r>
       <r>   -25.6267     0.0000     0.0000 </r>
       <r>   -25.5242     0.0000     0.0000 </r>
       <r>   -25.4217     0.0000     0.0000 </r>
       <r>   -25.3192     0.0000     0.0000 </r>
       <r>   -25.2167     0.0000     0.0000 </r>
       <r>   -25.1142     0.0000     0.0000 </r>
       <r>   -25.0117     0.0000     0.0000 </r>
       <r>   -24.9092     0.0000     0.0000 </r>
       <r>   -24.8067     0.0000     0.0000 </r>
       <r>   -24.7042     0.0000     0.0000 </r>
       <r>   -24.6017     0.0000     0.0000 </r>
       <r>   -24.4992     0.0000     0.0000 </r>
       <r>   -24.3967     0.0000     0.0000 </r>
       <r>   -24.2941     0.0000     0.0000 </r>
       <r>   -24.1916     0.0000     0.0000 </r>
       <r>   -24.0891     0.0000     0.0000 </r>
       <r>   -23.9866     0.0000     0.0000 </r>
       <r>   -23.8841     0.0000     0.0000 </r>
       <r>   -23.7816     0.0000     0.0000 </r>
       <r>   -23.6791     0.0000     0.0000 </r>
       <r>   -23.5766     0.0000     0.0000 </r>
       <r>   -23.4741     0.0000     0.0000 </r>
       <r>   -23.3716     0.0000     0.0000 </r>
       <r>   -23.2691     0.0000     0.0000 </r>
       <r>   -23.1666     0.0000     0.0000 </r>
       <r>   -23.0641     0.0000     0.0000 </r>
       <r>   -22.9616     0.0000     0.0000 </r>
       <r>   -22.8591     0.0000     0.0000 </r>
       <r>   -22.7565     0.0000     0.0000 </r>
       <r>   -22.6540     0.0000     0.0000 </r>
       <r>   -22.5515     0.0000     0.0000 </r>
       <r>   -22.4490     0.0000     0.0000 </r>
       <r>   -22.3465     0.0005     0.0000 </r>
       <r>   -22.2440     0.0070     0.0008 </r>
       <r>   -22.1415     0.0638     0.0073 </r>
       <r>   -22.0390     0.3482     0.0430 </r>
       <r>   -21.9365     1.1471     0.1606 </r>
       <r>   -21.8340     2.2834     0.3946 </r>
       <r>   -21.7315     2.7485     0.6764 </r>
       <r>   -21.6290     2.0009     0.8815 </r>
       <r>   -21.5265     0.8807     0.9718 </r>
       <r>   -21.4240     0.2341     0.9958 </r>
       <r>   -21.3214     0.0375     0.9996 </r>
       <r>   -21.2189     0.0036     1.0000 </r>
       <r>   -21.1164     0.0002     1.0000 </r>
       <r>   -21.0139     0.0000     1.0000 </r>
       <r>   -20.9114     0.0000     1.0000 </r>
       <r>   -20.8089     0.0000     1.0000 </r>
       <r>   -20.7064     0.0000     1.0000 </r>
       <r>   -20.6039     0.0000     1.0000 </r>
       <r>   -20.5014     0.0000     1.0000 </r>
       <r>   -20.3989     0.0000     1.0000 </r>
       <r>   -20.2964     0.0000     1.0000 </r>
       <r>   -20.1939     0.0000     1.0000 </r>
       <r>   -20.0914     0.0000     1.0000 </r>
       <r>   -19.9889     0.0000     1.0000 </r>
       <r>   -19.8864     0.0000     1.0000 </r>
       <r>   -19.7838     0.0000     1.0000 </r>
       <r>   -19.6813     0.0000     1.0000 </r>
       <r>   -19.5788     0.0000     1.0000 </r>
       <r>   -19.4763     0.0000     1.0000 </r>
       <r>   -19.3738     0.0000     1.0000 </r>
       <r>   -19.2713     0.0000     1.0000 </r>
       <r>   -19.1688     0.0000     1.0000 </r>
       <r>   -19.0663     0.0000     1.0000 </r>
       <r>   -18.9638     0.0000     1.0000 </r>
       <r>   -18.8613     0.0000     1.0000 </r>
       <r>   -18.7588     0.0000     1.0000 </r>
       <r>   -18.6563     0.0000     1.0000 </r>
       <r>   -18.5538     0.0000     1.0000 </r>
       <r>   -18.4513     0.0000     1.0000 </r>
       <r>   -18.3488     0.0000     1.0000 </r>
       <r>   -18.2462     0.0000     1.0000 </r>
       <r>   -18.1437     0.0000     1.0000 </r>
       <r>   -18.0412     0.0000     1.0000 </r>
       <r>   -17.9387     0.0000     1.0000 </r>
       <r>   -17.8362     0.0000     1.0000 </r>
       <r>   -17.7337     0.0000     1.0000 </r>
       <r>   -17.6312     0.0000     1.0000 </r>
       <r>   -17.5287     0.0000     1.0000 </r>
       <r>   -17.4262     0.0000     1.0000 </r>
       <r>   -17.3237     0.0000     1.0000 </r>
       <r>   -17.2212     0.0000     1.0000 </r>
       <r>   -17.1187     0.0000     1.0000 </r>
       <r>   -17.0162     0.0000     1.0000 </r>
       <r>   -16.9137     0.0000     1.0000 </r>
       <r>   -16.8112     0.0000     1.0000 </r>
       <r>   -16.7086     0.0000     1.0000 </r>
       <r>   -16.6061     0.0000     1.0000 </r>
       <r>   -16.5036     0.0000     1.0000 </r>
       <r>   -16.4011     0.0000     1.0000 </r>
       <r>   -16.2986     0.0000     1.0000 </r>
       <r>   -16.1961     0.0000     1.0000 </r>
       <r>   -16.0936     0.0000     1.0000 </r>
       <r>   -15.9911     0.0000     1.0000 </r>
       <r>   -15.8886     0.0000     1.0000 </r>
       <r>   -15.7861     0.0000     1.0000 </r>
       <r>   -15.6836     0.0000     1.0000 </r>
       <r>   -15.5811     0.0000     1.0000 </r>
       <r>   -15.4786     0.0000     1.0000 </r>
       <r>   -15.3761     0.0000     1.0000 </r>
       <r>   -15.2736     0.0000     1.0000 </r>
       <r>   -15.1710     0.0000     1.0000 </r>
       <r>   -15.0685     0.0000     1.0000 </r>
       <r>   -14.9660     0.0000     1.0000 </r>
       <r>   -14.8635     0.0000     1.0000 </r>
       <r>   -14.7610     0.0000     1.0000 </r>
       <r>   -14.6585     0.0000     1.0000 </r>
       <r>   -14.5560     0.0000     1.0000 </r>
       <r>   -14.4535     0.0000     1.0000 </r>
       <r>   -14.3510     0.0000     1.0000 </r>
       <r>   -14.2485     0.0000     1.0000 </r>
       <r>   -14.1460     0.0000     1.0000 </r>
       <r>   -14.0435     0.0000     1.0000 </r>
       <r>   -13.9410     0.0000     1.0000 </r>
       <r>   -13.8385     0.0000     1.0000 </r>
       <r>   -13.7360     0.0000     1.0000 </r>
       <r>   -13.6334     0.0000     1.0000 </r>
       <r>   -13.5309     0.0000     1.0000 </r>
       <r>   -13.4284     0.0000     1.0000 </r>
       <r>   -13.3259     0.0000     1.0000 </r>
       <r>   -13.2234     0.0000     1.0000 </r>
       <r>   -13.1209     0.0000     1.0000 </r>
       <r>   -13.0184     0.0000     1.0000 </r>
       <r>   -12.9159     0.0000     1.0000 </r>
       <r>   -12.8134     0.0000     1.0000 </r>
       <r>   -12.7109     0.0000     1.0000 </r>
       <r>   -12.6084     0.0000     1.0000 </r>
       <r>   -12.5059     0.0000     1.0000 </r>
       <r>   -12.4034     0.0000     1.0000 </r>
       <r>   -12.3009     0.0000     1.0000 </r>
       <r>   -12.1984     0.0000     1.0000 </r>
       <r>   -12.0958     0.0000     1.0000 </r>
       <r>   -11.9933     0.0000     1.0000 </r>
       <r>   -11.8908     0.0000     1.0000 </r>
       <r>   -11.7883     0.0000     1.0000 </r>
       <r>   -11.6858     0.0000     1.0000 </r>
       <r>   -11.5833     0.0000     1.0000 </r>
       <r>   -11.4808     0.0000     1.0000 </r>
       <r>   -11.3783     0.0000     1.0000 </r>
       <r>   -11.2758     0.0000     1.0000 </r>
       <r>   -11.1733     0.0000     1.0000 </r>
       <r>   -11.0708     0.0000     1.0000 </r>
       <r>   -10.9683     0.0000     1.0000 </r>
       <r>   -10.8658     0.0000     1.0000 </r>
       <r>   -10.7633     0.0000     1.0000 </r>
       <r>   -10.6607     0.0000     1.0000 </r>
       <r>   -10.5582     0.0000     1.0000 </r>
       <r>   -10.4557     0.0000     1.0000 </r>
       <r>   -10.3532     0.0000     1.0000 </r>
       <r>   -10.2507     0.0000     1.0000 </r>
       <r>   -10.1482     0.0000     1.0000 </r>
       <r>   -10.0457     0.0000     1.0000 </r>
       <r>    -9.9432     0.0000     1.0000 </r>
       <r>    -9.8407     0.0000     1.0000 </r>
       <r>    -9.7382     0.0000     1.0000 </r>
       <r>    -9.6357     0.0000     1.0000 </r>
       <r>    -9.5332     0.0000     1.0000 </r>
       <r>    -9.4307     0.0000     1.0000 </r>
       <r>    -9.3282     0.0000     1.0000 </r>
       <r>    -9.2257     0.0000     1.0000 </r>
       <r>    -9.1231     0.0000     1.0000 </r>
       <r>    -9.0206     0.0000     1.0000 </r>
       <r>    -8.9181     0.0000     1.0000 </r>
       <r>    -8.8156     0.0000     1.0000 </r>
       <r>    -8.7131     0.0000     1.0000 </r>
       <r>    -8.6106     0.0000     1.0000 </r>
       <r>    -8.5081     0.0000     1.0000 </r>
       <r>    -8.4056     0.0000     1.0000 </r>
       <r>    -8.3031     0.0000     1.0000 </r>
       <r>    -8.2006     0.0000     1.0000 </r>
       <r>    -8.0981     0.0000     1.0000 </r>
       <r>    -7.9956     0.0001     1.0000 </r>
       <r>    -7.8931     0.0018     1.0002 </r>
       <r>    -7.7906     0.0260     1.0029 </r>
       <r>    -7.6881     0.2257     1.0260 </r>
       <r>    -7.5855     1.1801     1.1470 </r>
       <r>    -7.4830     3.7234     1.5286 </r>
       <r>    -7.3805     7.0986     2.2563 </r>
       <r>    -7.2780     8.1836     3.0952 </r>
       <r>    -7.1755     5.7061     3.6801 </r>
       <r>    -7.0730     2.4053     3.9266 </r>
       <r>    -6.9705     0.6124     3.9894 </r>
       <r>    -6.8680     0.0940     3.9991 </r>
       <r>    -6.7655     0.0087     3.9999 </r>
       <r>    -6.6630     0.0005     4.0000 </r>
       <r>    -6.5605     0.0000     4.0000 </r>
       <r>    -6.4580     0.0000     4.0000 </r>
       <r>    -6.3555     0.0000     4.0000 </r>
       <r>    -6.2530     0.0000     4.0000 </r>
       <r>    -6.1505     0.0000     4.0000 </r>
       <r>    -6.0479     0.0000     4.0000 </r>
       <r>    -5.9454     0.0000     4.0000 </r>
       <r>    -5.8429     0.0000     4.0000 </r>
       <r>    -5.7404     0.0000     4.0000 </r>
       <r>    -5.6379     0.0000     4.0000 </r>
       <r>    -5.5354     0.0000     4.0000 </r>
       <r>    -5.4329     0.0000     4.0000 </r>
       <r>    -5.3304     0.0000     4.0000 </r>
       <r>    -5.2279     0.0000     4.0000 </r>
       <r>    -5.1254     0.0000     4.0000 </r>
       <r>    -5.0229     0.0000     4.0000 </r>
       <r>    -4.9204     0.0000     4.0000 </r>
       <r>    -4.8179     0.0000     4.0000 </r>
       <r>    -4.7154     0.0000     4.0000 </r>
       <r>    -4.6129     0.0000     4.0000 </r>
       <r>    -4.5103     0.0000     4.0000 </r>
       <r>    -4.4078     0.0000     4.0000 </r>
       <r>    -4.3053     0.0000     4.0000 </r>
       <r>    -4.2028     0.0000     4.0000 </r>
       <r>    -4.1003     0.0000     4.0000 </r>
       <r>    -3.9978     0.0000     4.0000 </r>
       <r>    -3.8953     0.0000     4.0000 </r>
       <r>    -3.7928     0.0000     4.0000 </r>
       <r>    -3.6903     0.0000     4.0000 </r>
       <r>    -3.5878     0.0000     4.0000 </r>
       <r>    -3.4853     0.0000     4.0000 </r>
       <r>    -3.3828     0.0000     4.0000 </r>
       <r>    -3.2803     0.0000     4.0000 </r>
       <r>    -3.1778     0.0000     4.0000 </r>
       <r>    -3.0753     0.0000     4.0000 </r>
       <r>    -2.9727     0.0000     4.0000 </r>
       <r>    -2.8702     0.0000     4.0000 </r>
       <r>    -2.7677     0.0000     4.0000 </r>
       <r>    -2.6652     0.0000     4.0000 </r>
       <r>    -2.5627     0.0000     4.0000 </r>
       <r>    -2.4602     0.0000     4.0000 </r>
       <r>    -2.3577     0.0000     4.0000 </r>
       <r>    -2.2552     0.0000     4.0000 </r>
       <r>    -2.1527     0.0000     4.0000 </r>
       <r>    -2.0502     0.0000     4.0000 </r>
       <r>    -1.9477     0.0000     4.0000 </r>
       <r>    -1.8452     0.0000     4.0000 </r>
       <r>    -1.7427     0.0000     4.0000 </r>
       <r>    -1.6402     0.0000     4.0000 </r>
       <r>    -1.5377     0.0000     4.0000 </r>
       <r>    -1.4351     0.0000     4.0000 </r>
       <r>    -1.3326     0.0000     4.0000 </r>
       <r>    -1.2301     0.0000     4.0000 </r>
       <r>    -1.1276     0.0000     4.0000 </r>
       <r>    -1.0251     0.0000     4.0000 </r>
       <r>    -0.9226     0.0003     4.0000 </r>
       <r>    -0.8201     0.0051     4.0006 </r>
       <r>    -0.7176     0.0493     4.0056 </r>
       <r>    -0.6151     0.2872     4.0350 </r>
       <r>    -0.5126     1.0106     4.1386 </r>
       <r>    -0.4101     2.1480     4.3588 </r>
       <r>    -0.3076     2.7604     4.6418 </r>
       <r>    -0.2051     2.1455     4.8617 </r>
       <r>    -0.1026     1.0083     4.9651 </r>
       <r>     0.0000     0.2863     4.9944 </r>
       <r>     0.1025     0.0490     4.9994 </r>
       <r>     0.2050     0.0051     5.0000 </r>
       <r>     0.3075     0.0003     5.0000 </r>
       <r>     0.4100     0.0000     5.0000 </r>
       <r>     0.5125     0.0000     5.0000 </r>
       <r>     0.6150     0.0000     5.0000 </r>
       <r>     0.7175     0.0000     5.0000 </r>
       <r>     0.8200     0.0000     5.0000 </r>
       <r>     0.9225     0.0000     5.0000 </r>
       <r>     1.0250     0.0000     5.0000 </r>
       <r>     1.1275     0.0000     5.0000 </r>
       <r>     1.2300     0.0000     5.0000 </r>
       <r>     1.3325     0.0000     5.0000 </r>
       <r>     1.4350     0.0010     5.0001 </r>
       <r>     1.5376     0.0156     5.0017 </r>
       <r>     1.6401     0.1507     5.0172 </r>
       <r>     1.7426     0.8746     5.1068 </r>
       <r>     1.8451     3.0618     5.4207 </r>
       <r>     1.9476     6.4755     6.0844 </r>
       <r>     2.0501     8.2809     6.9333 </r>
       <r>     2.1526     6.4048     7.5898 </r>
       <r>     2.2551     2.9952     7.8969 </r>
       <r>     2.3576     0.8462     7.9836 </r>
       <r>     2.4601     0.1442     7.9984 </r>
       <r>     2.5626     0.0148     7.9999 </r>
       <r>     2.6651     0.0009     8.0000 </r>
       <r>     2.7676     0.0000     8.0000 </r>
       <r>     2.8701     0.0000     8.0000 </r>
       <r>     2.9726     0.0000     8.0000 </r>
       <r>     3.0752     0.0000     8.0000 </r>
       <r>     3.1777     0.0000     8.0000 </r>
       <r>     3.2802     0.0000     8.0000 </r>
       <r>     3.3827     0.0000     8.0000 </r>
       <r>     3.4852     0.0000     8.0000 </r>
       <r>     3.5877     0.0000     8.0000 </r>
       <r>     3.6902     0.0000     8.0000 </r>
       <r>     3.7927     0.0000     8.0000 </r>
       <r>     3.8952     0.0000     8.0000 </r>
       <r>     3.9977     0.0000     8.0000 </r>
      </set>
     </set>
    </array>
   </total>
  </dos>
 </calculation>
 <structure name="finalpos" >
  <crystal>
   <varray name="basis" >
    <v>       8.00000000       0.00000000       0.00000000 </v>
    <v>       0.00000000       8.00000000       0.00000000 </v>
    <v>       0.00000000       0.00000000       8.00000000 </v>
   </varray>
   <i name="volume">    512.00000000 </i>
   <varray name="rec_basis" >
    <v>       0.12500000       0.00000000       0.00000000 </v>
    <v>       0.00000000       0.12500000       0.00000000 </v>
    <v>       0.00000000       0.00000000       0.12500000 </v>
   </varray>
  </crystal>
  <varray name="positions" >
   <v>       0.00000000       0.00000000       0.00000000 </v>
  </varray>
 </structure>
</modeling>
