O atom in a box                         
           1
     8.000000    0.000000    0.000000
     0.000000    8.000000    0.000000
     0.000000    0.000000    8.000000
   O 
   1
Direct configuration=     1
   0.00000000  0.00000000  0.00000000
