   2   2   0   0
  0.2560000E+03  0.8000000E-09  0.8000000E-09  0.8000000E-09  0.5000000E-15
  1.000000000000000E-004
  CAR 
 O2 dimer in a box                       
      3.94197550    -34.30792084  301     -5.74700215      1.00000000
    -34.308  0.0000E+00  0.0000E+00  0.0000E+00  0.0000E+00
    -34.180  0.0000E+00  0.0000E+00  0.0000E+00  0.0000E+00
    -34.053  0.0000E+00  0.0000E+00  0.0000E+00  0.0000E+00
    -33.925  0.0000E+00  0.0000E+00  0.0000E+00  0.0000E+00
    -33.798  0.0000E+00  0.0000E+00  0.0000E+00  0.0000E+00
    -33.670  0.0000E+00  0.0000E+00  0.0000E+00  0.0000E+00
    -33.543  0.0000E+00  0.0000E+00  0.0000E+00  0.0000E+00
    -33.415  0.3831E-14  0.0000E+00  0.4885E-15  0.0000E+00
    -33.288  0.3305E-11  0.0000E+00  0.4218E-12  0.0000E+00
    -33.160  0.1298E-08  0.0000E+00  0.1659E-09  0.0000E+00
    -33.033  0.2302E-06  0.0000E+00  0.2951E-07  0.0000E+00
    -32.905  0.1851E-04  0.0000E+00  0.2390E-05  0.0000E+00
    -32.778  0.6787E-03  0.0000E+00  0.8892E-04  0.0000E+00
    -32.650  0.1141E-01  0.0000E+00  0.1544E-02  0.0000E+00
    -32.523  0.8862E-01  0.0000E+00  0.1284E-01  0.0000E+00
    -32.395  0.3197E+00  0.0000E+00  0.5361E-01  0.0000E+00
    -32.268  0.5385E+00  0.0000E+00  0.1223E+00  0.0000E+00
    -32.140  0.4244E+00  0.5564E-13  0.1764E+00  0.7094E-14
    -32.013  0.1563E+00  0.3575E-10  0.1963E+00  0.4565E-11
    -31.885  0.2680E-01  0.1035E-07  0.1997E+00  0.1324E-08
    -31.758  0.2127E-02  0.1355E-05  0.2000E+00  0.1741E-06
    -31.630  0.7763E-04  0.8063E-04  0.2000E+00  0.1045E-04
    -31.503  0.1294E-05  0.2192E-02  0.2000E+00  0.2899E-03
    -31.375  0.9805E-08  0.2740E-01  0.2000E+00  0.3783E-02
    -31.248  0.3359E-10  0.1585E+00  0.2000E+00  0.2399E-01
    -31.120  0.5190E-13  0.4270E+00  0.2000E+00  0.7844E-01
    -30.993  0.0000E+00  0.5377E+00  0.2000E+00  0.1470E+00
    -30.865  0.0000E+00  0.3168E+00  0.2000E+00  0.1874E+00
    -30.738  0.0000E+00  0.8712E-01  0.2000E+00  0.1985E+00
    -30.610  0.0000E+00  0.1113E-01  0.2000E+00  0.1999E+00
    -30.483  0.0000E+00  0.6566E-03  0.2000E+00  0.2000E+00
    -30.355  0.0000E+00  0.1777E-04  0.2000E+00  0.2000E+00
    -30.228  0.0000E+00  0.2191E-06  0.2000E+00  0.2000E+00
    -30.100  0.0000E+00  0.1226E-08  0.2000E+00  0.2000E+00
    -29.973  0.0000E+00  0.3096E-11  0.2000E+00  0.2000E+00
    -29.845  0.0000E+00  0.3483E-14  0.2000E+00  0.2000E+00
    -29.718  0.0000E+00  0.0000E+00  0.2000E+00  0.2000E+00
    -29.590  0.0000E+00  0.0000E+00  0.2000E+00  0.2000E+00
    -29.463  0.0000E+00  0.0000E+00  0.2000E+00  0.2000E+00
    -29.335  0.0000E+00  0.0000E+00  0.2000E+00  0.2000E+00
    -29.208  0.0000E+00  0.0000E+00  0.2000E+00  0.2000E+00
    -29.080  0.0000E+00  0.0000E+00  0.2000E+00  0.2000E+00
    -28.953  0.0000E+00  0.0000E+00  0.2000E+00  0.2000E+00
    -28.825  0.0000E+00  0.0000E+00  0.2000E+00  0.2000E+00
    -28.698  0.0000E+00  0.0000E+00  0.2000E+00  0.2000E+00
    -28.570  0.0000E+00  0.0000E+00  0.2000E+00  0.2000E+00
    -28.443  0.0000E+00  0.0000E+00  0.2000E+00  0.2000E+00
    -28.315  0.0000E+00  0.0000E+00  0.2000E+00  0.2000E+00
    -28.188  0.0000E+00  0.0000E+00  0.2000E+00  0.2000E+00
    -28.060  0.0000E+00  0.0000E+00  0.2000E+00  0.2000E+00
    -27.933  0.0000E+00  0.0000E+00  0.2000E+00  0.2000E+00
    -27.805  0.0000E+00  0.0000E+00  0.2000E+00  0.2000E+00
    -27.678  0.0000E+00  0.0000E+00  0.2000E+00  0.2000E+00
    -27.550  0.0000E+00  0.0000E+00  0.2000E+00  0.2000E+00
    -27.423  0.0000E+00  0.0000E+00  0.2000E+00  0.2000E+00
    -27.295  0.0000E+00  0.0000E+00  0.2000E+00  0.2000E+00
    -27.168  0.0000E+00  0.0000E+00  0.2000E+00  0.2000E+00
    -27.040  0.0000E+00  0.0000E+00  0.2000E+00  0.2000E+00
    -26.913  0.0000E+00  0.0000E+00  0.2000E+00  0.2000E+00
    -26.785  0.0000E+00  0.0000E+00  0.2000E+00  0.2000E+00
    -26.658  0.0000E+00  0.0000E+00  0.2000E+00  0.2000E+00
    -26.530  0.0000E+00  0.0000E+00  0.2000E+00  0.2000E+00
    -26.403  0.0000E+00  0.0000E+00  0.2000E+00  0.2000E+00
    -26.275  0.0000E+00  0.0000E+00  0.2000E+00  0.2000E+00
    -26.148  0.0000E+00  0.0000E+00  0.2000E+00  0.2000E+00
    -26.020  0.0000E+00  0.0000E+00  0.2000E+00  0.2000E+00
    -25.893  0.0000E+00  0.0000E+00  0.2000E+00  0.2000E+00
    -25.765  0.0000E+00  0.0000E+00  0.2000E+00  0.2000E+00
    -25.638  0.0000E+00  0.0000E+00  0.2000E+00  0.2000E+00
    -25.510  0.0000E+00  0.0000E+00  0.2000E+00  0.2000E+00
    -25.383  0.0000E+00  0.0000E+00  0.2000E+00  0.2000E+00
    -25.255  0.0000E+00  0.0000E+00  0.2000E+00  0.2000E+00
    -25.128  0.0000E+00  0.0000E+00  0.2000E+00  0.2000E+00
    -25.000  0.0000E+00  0.0000E+00  0.2000E+00  0.2000E+00
    -24.873  0.0000E+00  0.0000E+00  0.2000E+00  0.2000E+00
    -24.745  0.0000E+00  0.0000E+00  0.2000E+00  0.2000E+00
    -24.618  0.0000E+00  0.0000E+00  0.2000E+00  0.2000E+00
    -24.490  0.0000E+00  0.0000E+00  0.2000E+00  0.2000E+00
    -24.363  0.0000E+00  0.0000E+00  0.2000E+00  0.2000E+00
    -24.235  0.0000E+00  0.0000E+00  0.2000E+00  0.2000E+00
    -24.108  0.0000E+00  0.0000E+00  0.2000E+00  0.2000E+00
    -23.980  0.0000E+00  0.0000E+00  0.2000E+00  0.2000E+00
    -23.853  0.0000E+00  0.0000E+00  0.2000E+00  0.2000E+00
    -23.725  0.0000E+00  0.0000E+00  0.2000E+00  0.2000E+00
    -23.598  0.0000E+00  0.0000E+00  0.2000E+00  0.2000E+00
    -23.470  0.0000E+00  0.0000E+00  0.2000E+00  0.2000E+00
    -23.343  0.0000E+00  0.0000E+00  0.2000E+00  0.2000E+00
    -23.215  0.0000E+00  0.0000E+00  0.2000E+00  0.2000E+00
    -23.088  0.0000E+00  0.0000E+00  0.2000E+00  0.2000E+00
    -22.960  0.0000E+00  0.0000E+00  0.2000E+00  0.2000E+00
    -22.833  0.0000E+00  0.0000E+00  0.2000E+00  0.2000E+00
    -22.705  0.0000E+00  0.0000E+00  0.2000E+00  0.2000E+00
    -22.578  0.0000E+00  0.0000E+00  0.2000E+00  0.2000E+00
    -22.450  0.0000E+00  0.0000E+00  0.2000E+00  0.2000E+00
    -22.323  0.0000E+00  0.0000E+00  0.2000E+00  0.2000E+00
    -22.195  0.0000E+00  0.0000E+00  0.2000E+00  0.2000E+00
    -22.068  0.0000E+00  0.0000E+00  0.2000E+00  0.2000E+00
    -21.940  0.0000E+00  0.0000E+00  0.2000E+00  0.2000E+00
    -21.813  0.0000E+00  0.0000E+00  0.2000E+00  0.2000E+00
    -21.685  0.0000E+00  0.0000E+00  0.2000E+00  0.2000E+00
    -21.558  0.5921E-14  0.0000E+00  0.2000E+00  0.2000E+00
    -21.430  0.4922E-11  0.0000E+00  0.2000E+00  0.2000E+00
    -21.303  0.1839E-08  0.0000E+00  0.2000E+00  0.2000E+00
    -21.175  0.3102E-06  0.0000E+00  0.2000E+00  0.2000E+00
    -21.048  0.2375E-04  0.0000E+00  0.2000E+00  0.2000E+00
    -20.920  0.8289E-03  0.0000E+00  0.2001E+00  0.2000E+00
    -20.793  0.1328E-01  0.0000E+00  0.2018E+00  0.2000E+00
    -20.665  0.9824E-01  0.0000E+00  0.2143E+00  0.2000E+00
    -20.538  0.3378E+00  0.0000E+00  0.2574E+00  0.2000E+00
    -20.410  0.5425E+00  0.0000E+00  0.3266E+00  0.2000E+00
    -20.283  0.4076E+00  0.0000E+00  0.3785E+00  0.2000E+00
    -20.155  0.1431E+00  0.0000E+00  0.3968E+00  0.2000E+00
    -20.028  0.2339E-01  0.0000E+00  0.3998E+00  0.2000E+00
    -19.900  0.1768E-02  0.0000E+00  0.4000E+00  0.2000E+00
    -19.773  0.6144E-04  0.3048E-14  0.4000E+00  0.2000E+00
    -19.645  0.9751E-06  0.2747E-11  0.4000E+00  0.2000E+00
    -19.518  0.7029E-08  0.1104E-08  0.4000E+00  0.2000E+00
    -19.390  0.2291E-10  0.2003E-06  0.4000E+00  0.2000E+00
    -19.263  0.3361E-13  0.1648E-04  0.4000E+00  0.2000E+00
    -19.135  0.0000E+00  0.6182E-03  0.4000E+00  0.2001E+00
    -19.008  0.0000E+00  0.1063E-01  0.4000E+00  0.2014E+00
    -18.880  0.0000E+00  0.8442E-01  0.4000E+00  0.2122E+00
    -18.753  0.0000E+00  0.3114E+00  0.4000E+00  0.2519E+00
    -18.625  0.0000E+00  0.5361E+00  0.4000E+00  0.3203E+00
    -18.498  0.0000E+00  0.4319E+00  0.4000E+00  0.3753E+00
    -18.370  0.0000E+00  0.1626E+00  0.4000E+00  0.3961E+00
    -18.243  0.0000E+00  0.2851E-01  0.4000E+00  0.3997E+00
    -18.115  0.0000E+00  0.2314E-02  0.4000E+00  0.4000E+00
    -17.988  0.0000E+00  0.8638E-04  0.4000E+00  0.4000E+00
    -17.860  0.0000E+00  0.1473E-05  0.4000E+00  0.4000E+00
    -17.733  0.0000E+00  0.1142E-07  0.4000E+00  0.4000E+00
    -17.605  0.0000E+00  0.4003E-10  0.4000E+00  0.4000E+00
    -17.478  0.0000E+00  0.6339E-13  0.4000E+00  0.4000E+00
    -17.350  0.0000E+00  0.0000E+00  0.4000E+00  0.4000E+00
    -17.223  0.0000E+00  0.0000E+00  0.4000E+00  0.4000E+00
    -17.095  0.0000E+00  0.0000E+00  0.4000E+00  0.4000E+00
    -16.968  0.0000E+00  0.0000E+00  0.4000E+00  0.4000E+00
    -16.840  0.0000E+00  0.0000E+00  0.4000E+00  0.4000E+00
    -16.713  0.0000E+00  0.0000E+00  0.4000E+00  0.4000E+00
    -16.585  0.0000E+00  0.0000E+00  0.4000E+00  0.4000E+00
    -16.458  0.0000E+00  0.0000E+00  0.4000E+00  0.4000E+00
    -16.330  0.0000E+00  0.0000E+00  0.4000E+00  0.4000E+00
    -16.203  0.0000E+00  0.0000E+00  0.4000E+00  0.4000E+00
    -16.075  0.0000E+00  0.0000E+00  0.4000E+00  0.4000E+00
    -15.948  0.0000E+00  0.0000E+00  0.4000E+00  0.4000E+00
    -15.820  0.0000E+00  0.0000E+00  0.4000E+00  0.4000E+00
    -15.693  0.0000E+00  0.0000E+00  0.4000E+00  0.4000E+00
    -15.565  0.0000E+00  0.0000E+00  0.4000E+00  0.4000E+00
    -15.438  0.0000E+00  0.0000E+00  0.4000E+00  0.4000E+00
    -15.310  0.0000E+00  0.0000E+00  0.4000E+00  0.4000E+00
    -15.183  0.0000E+00  0.0000E+00  0.4000E+00  0.4000E+00
    -15.055  0.0000E+00  0.0000E+00  0.4000E+00  0.4000E+00
    -14.928  0.0000E+00  0.0000E+00  0.4000E+00  0.4000E+00
    -14.800  0.0000E+00  0.0000E+00  0.4000E+00  0.4000E+00
    -14.673  0.0000E+00  0.0000E+00  0.4000E+00  0.4000E+00
    -14.545  0.0000E+00  0.0000E+00  0.4000E+00  0.4000E+00
    -14.418  0.0000E+00  0.0000E+00  0.4000E+00  0.4000E+00
    -14.290  0.2299E-13  0.0000E+00  0.4000E+00  0.4000E+00
    -14.163  0.1634E-10  0.0000E+00  0.4000E+00  0.4000E+00
    -14.035  0.5244E-08  0.0000E+00  0.4000E+00  0.4000E+00
    -13.908  0.7618E-06  0.0000E+00  0.4000E+00  0.4000E+00
    -13.780  0.5047E-04  0.0000E+00  0.4000E+00  0.4000E+00
    -13.653  0.1543E-02  0.0000E+00  0.4002E+00  0.4000E+00
    -13.525  0.2223E-01  0.0000E+00  0.4030E+00  0.4000E+00
    -13.398  0.1571E+00  0.3396E-14  0.4231E+00  0.4000E+00
    -13.270  0.5808E+00  0.3001E-11  0.4971E+00  0.4000E+00
    -13.143  0.1205E+01  0.1193E-08  0.6508E+00  0.4000E+00
    -13.015  0.1436E+01  0.2141E-06  0.8338E+00  0.4000E+00
    -12.888  0.9365E+00  0.1742E-04  0.9533E+00  0.4000E+00
    -12.760  0.3121E+00  0.6464E-03  0.9931E+00  0.4001E+00
    -12.633  0.5050E-01  0.1100E-01  0.9995E+00  0.4015E+00
    -12.505  0.3850E-02  0.8641E-01  0.1000E+01  0.4125E+00
    -12.378  0.1359E-03  0.3154E+00  0.1000E+01  0.4527E+00
    -12.250  0.2197E-05  0.5373E+00  0.1000E+01  0.5212E+00
    -12.123  0.1616E-07  0.4283E+00  0.1000E+01  0.5758E+00
    -11.995  0.5375E-10  0.1596E+00  0.1000E+01  0.5962E+00
    -11.868  0.8081E-13  0.2769E-01  0.1000E+01  0.5997E+00
    -11.740  0.0000E+00  0.2550E-02  0.1000E+01  0.6000E+00
    -11.613  0.0000E+00  0.7714E-02  0.1000E+01  0.6010E+00
    -11.485  0.0000E+00  0.8203E-01  0.1000E+01  0.6115E+00
    -11.358  0.0000E+00  0.4086E+00  0.1000E+01  0.6636E+00
    -11.230  0.0000E+00  0.9484E+00  0.1000E+01  0.7845E+00
    -11.103  0.0000E+00  0.1029E+01  0.1000E+01  0.9157E+00
    -10.975  0.0000E+00  0.5227E+00  0.1000E+01  0.9824E+00
    -10.848  0.0000E+00  0.1238E+00  0.1000E+01  0.9982E+00
    -10.720  0.0000E+00  0.1361E-01  0.1000E+01  0.9999E+00
    -10.593  0.0000E+00  0.6898E-03  0.1000E+01  0.1000E+01
    -10.465  0.0000E+00  0.1601E-04  0.1000E+01  0.1000E+01
    -10.338  0.0000E+00  0.1693E-06  0.1000E+01  0.1000E+01
    -10.210  0.0000E+00  0.8109E-09  0.1000E+01  0.1000E+01
    -10.083  0.0000E+00  0.1752E-11  0.1000E+01  0.1000E+01
     -9.955  0.0000E+00  0.1742E-14  0.1000E+01  0.1000E+01
     -9.828  0.0000E+00  0.0000E+00  0.1000E+01  0.1000E+01
     -9.700  0.0000E+00  0.0000E+00  0.1000E+01  0.1000E+01
     -9.573  0.0000E+00  0.0000E+00  0.1000E+01  0.1000E+01
     -9.445  0.0000E+00  0.0000E+00  0.1000E+01  0.1000E+01
     -9.318  0.0000E+00  0.0000E+00  0.1000E+01  0.1000E+01
     -9.190  0.0000E+00  0.0000E+00  0.1000E+01  0.1000E+01
     -9.063  0.0000E+00  0.0000E+00  0.1000E+01  0.1000E+01
     -8.935  0.0000E+00  0.0000E+00  0.1000E+01  0.1000E+01
     -8.808  0.0000E+00  0.0000E+00  0.1000E+01  0.1000E+01
     -8.680  0.0000E+00  0.0000E+00  0.1000E+01  0.1000E+01
     -8.553  0.0000E+00  0.0000E+00  0.1000E+01  0.1000E+01
     -8.425  0.0000E+00  0.0000E+00  0.1000E+01  0.1000E+01
     -8.298  0.0000E+00  0.0000E+00  0.1000E+01  0.1000E+01
     -8.170  0.0000E+00  0.0000E+00  0.1000E+01  0.1000E+01
     -8.043  0.0000E+00  0.0000E+00  0.1000E+01  0.1000E+01
     -7.915  0.3483E-15  0.0000E+00  0.1000E+01  0.1000E+01
     -7.788  0.4049E-12  0.0000E+00  0.1000E+01  0.1000E+01
     -7.660  0.2235E-09  0.0000E+00  0.1000E+01  0.1000E+01
     -7.533  0.5563E-07  0.0000E+00  0.1000E+01  0.1000E+01
     -7.405  0.6266E-05  0.0000E+00  0.1000E+01  0.1000E+01
     -7.278  0.3210E-03  0.0000E+00  0.1000E+01  0.1000E+01
     -7.150  0.7524E-02  0.0000E+00  0.1001E+01  0.1000E+01
     -7.023  0.8119E-01  0.0000E+00  0.1011E+01  0.1000E+01
     -6.895  0.4060E+00  0.0000E+00  0.1063E+01  0.1000E+01
     -6.768  0.9461E+00  0.0000E+00  0.1184E+01  0.1000E+01
     -6.640  0.1031E+01  0.0000E+00  0.1315E+01  0.1000E+01
     -6.513  0.5256E+00  0.0000E+00  0.1382E+01  0.1000E+01
     -6.385  0.1250E+00  0.0000E+00  0.1398E+01  0.1000E+01
     -6.258  0.1379E-01  0.0000E+00  0.1400E+01  0.1000E+01
     -6.130  0.7018E-03  0.0000E+00  0.1400E+01  0.1000E+01
     -6.003  0.1636E-04  0.0000E+00  0.1400E+01  0.1000E+01
     -5.875  0.1737E-06  0.0000E+00  0.1400E+01  0.1000E+01
     -5.748  0.8352E-09  0.0000E+00  0.1400E+01  0.1000E+01
     -5.620  0.1813E-11  0.1219E-14  0.1400E+01  0.1000E+01
     -5.493  0.1742E-14  0.1221E-11  0.1400E+01  0.1000E+01
     -5.365  0.0000E+00  0.5903E-09  0.1400E+01  0.1000E+01
     -5.238  0.0000E+00  0.1288E-06  0.1400E+01  0.1000E+01
     -5.110  0.0000E+00  0.1272E-04  0.1400E+01  0.1000E+01
     -4.983  0.0000E+00  0.5721E-03  0.1400E+01  0.1000E+01
     -4.856  0.0000E+00  0.1178E-01  0.1400E+01  0.1002E+01
     -4.728  0.0000E+00  0.1118E+00  0.1400E+01  0.1016E+01
     -4.601  0.0000E+00  0.4925E+00  0.1400E+01  0.1079E+01
     -4.473  0.0000E+00  0.1012E+01  0.1400E+01  0.1208E+01
     -4.346  0.0000E+00  0.9717E+00  0.1400E+01  0.1332E+01
     -4.218  0.0000E+00  0.4365E+00  0.1400E+01  0.1387E+01
     -4.091  0.0000E+00  0.9142E-01  0.1400E+01  0.1399E+01
     -3.963  0.0000E+00  0.8876E-02  0.1400E+01  0.1400E+01
     -3.836  0.0000E+00  0.3969E-03  0.1400E+01  0.1400E+01
     -3.708  0.0000E+00  0.8123E-05  0.1400E+01  0.1400E+01
     -3.581  0.0000E+00  0.7562E-07  0.1400E+01  0.1400E+01
     -3.453  0.0000E+00  0.3188E-09  0.1400E+01  0.1400E+01
     -3.326  0.0000E+00  0.6061E-12  0.1400E+01  0.1400E+01
     -3.198  0.0000E+00  0.6966E-15  0.1400E+01  0.1400E+01
     -3.071  0.0000E+00  0.0000E+00  0.1400E+01  0.1400E+01
     -2.943  0.0000E+00  0.0000E+00  0.1400E+01  0.1400E+01
     -2.816  0.0000E+00  0.0000E+00  0.1400E+01  0.1400E+01
     -2.688  0.0000E+00  0.0000E+00  0.1400E+01  0.1400E+01
     -2.561  0.0000E+00  0.0000E+00  0.1400E+01  0.1400E+01
     -2.433  0.0000E+00  0.0000E+00  0.1400E+01  0.1400E+01
     -2.306  0.0000E+00  0.0000E+00  0.1400E+01  0.1400E+01
     -2.178  0.0000E+00  0.0000E+00  0.1400E+01  0.1400E+01
     -2.051  0.0000E+00  0.0000E+00  0.1400E+01  0.1400E+01
     -1.923  0.0000E+00  0.0000E+00  0.1400E+01  0.1400E+01
     -1.796  0.0000E+00  0.0000E+00  0.1400E+01  0.1400E+01
     -1.668  0.0000E+00  0.0000E+00  0.1400E+01  0.1400E+01
     -1.541  0.3483E-15  0.0000E+00  0.1400E+01  0.1400E+01
     -1.413  0.4261E-12  0.1742E-15  0.1400E+01  0.1400E+01
     -1.286  0.2151E-09  0.2559E-12  0.1400E+01  0.1400E+01
     -1.158  0.4900E-07  0.1374E-09  0.1400E+01  0.1400E+01
     -1.031  0.5054E-05  0.3325E-07  0.1400E+01  0.1400E+01
     -0.903  0.2372E-03  0.3643E-05  0.1400E+01  0.1400E+01
     -0.776  0.5097E-02  0.1816E-03  0.1401E+01  0.1400E+01
     -0.648  0.5046E-01  0.4142E-02  0.1407E+01  0.1401E+01
     -0.521  0.2317E+00  0.4350E-01  0.1437E+01  0.1406E+01
     -0.393  0.4959E+00  0.2118E+00  0.1500E+01  0.1433E+01
     -0.266  0.4965E+00  0.4806E+00  0.1563E+01  0.1494E+01
     -0.138  0.2325E+00  0.5100E+00  0.1593E+01  0.1559E+01
     -0.011  0.5077E-01  0.2532E+00  0.1599E+01  0.1592E+01
      0.117  0.5141E-02  0.5861E-01  0.1600E+01  0.1599E+01
      0.244  0.2399E-03  0.6296E-02  0.1600E+01  0.1600E+01
      0.372  0.5123E-05  0.3118E-03  0.1600E+01  0.1600E+01
      0.499  0.5187E-07  0.7071E-05  0.1600E+01  0.1600E+01
      0.627  0.3438E-06  0.7302E-07  0.1600E+01  0.1600E+01
      0.754  0.2586E-04  0.3475E-09  0.1600E+01  0.1600E+01
      0.882  0.8875E-03  0.2161E-08  0.1600E+01  0.1600E+01
      1.009  0.1398E-01  0.3562E-06  0.1602E+01  0.1600E+01
      1.137  0.1017E+00  0.2666E-04  0.1615E+01  0.1600E+01
      1.264  0.3446E+00  0.9114E-03  0.1659E+01  0.1600E+01
      1.392  0.5553E+00  0.1439E-01  0.1730E+01  0.1602E+01
      1.519  0.5134E+00  0.1072E+00  0.1795E+01  0.1616E+01
      1.647  0.6308E+00  0.3999E+00  0.1875E+01  0.1667E+01
      1.774  0.1034E+01  0.8564E+00  0.2007E+01  0.1776E+01
      1.902  0.9737E+00  0.1248E+01  0.2131E+01  0.1935E+01
      2.029  0.4370E+00  0.1214E+01  0.2187E+01  0.2090E+01
      2.157  0.9157E-01  0.6614E+00  0.2199E+01  0.2174E+01
      2.284  0.8896E-02  0.1789E+00  0.2200E+01  0.2197E+01
      2.412  0.3981E-03  0.2288E-01  0.2200E+01  0.2200E+01
      2.539  0.8151E-05  0.1358E-02  0.2200E+01  0.2200E+01
      2.667  0.7594E-07  0.3703E-04  0.2200E+01  0.2200E+01
      2.794  0.3203E-09  0.4603E-06  0.2200E+01  0.2200E+01
      2.922  0.6092E-12  0.2596E-08  0.2200E+01  0.2200E+01
      3.049  0.6966E-15  0.6609E-11  0.2200E+01  0.2200E+01
      3.177  0.0000E+00  0.7663E-14  0.2200E+01  0.2200E+01
      3.304  0.0000E+00  0.0000E+00  0.2200E+01  0.2200E+01
      3.432  0.0000E+00  0.0000E+00  0.2200E+01  0.2200E+01
      3.559  0.0000E+00  0.0000E+00  0.2200E+01  0.2200E+01
      3.687  0.0000E+00  0.0000E+00  0.2200E+01  0.2200E+01
      3.814  0.0000E+00  0.0000E+00  0.2200E+01  0.2200E+01
      3.942  0.0000E+00  0.0000E+00  0.2200E+01  0.2200E+01
