    2    2    5    2
  0.2560000E+03  0.8000000E-09  0.8000000E-09  0.8000000E-09  0.5000000E-15
  1.000000000000000E-004
  CAR 
 O2 dimer in a box                       
     12      1     11
 
  0.0000000E+00  0.0000000E+00  0.0000000E+00  0.1000000E+01
    1      -32.307921    -31.081743
    2      -20.458456    -18.661768
    3      -13.215461    -12.288545
    4      -13.060149    -11.216712
    5      -13.060149    -11.216712
    6       -6.753567     -4.479746
    7       -6.753567     -4.479746
    8       -0.392808     -0.255544
    9        1.341226      1.722760
   10        1.767843      1.941975
   11        1.767843      1.941975
