       N       E                     dE             d eps       ncg     rms          rms(c)
DAV:   1    -0.986111298698E+01   -0.98611E+01   -0.86970E-08    44   0.202E-03    0.219E-04
DAV:   2    -0.986111297678E+01    0.10196E-07   -0.54001E-09    22   0.632E-04
   1 F= -.98611130E+01 E0= -.98611130E+01  d E =-.986111E+01  mag=     2.0000
