<?xml version="1.0" encoding="ISO-8859-1"?>
<modeling>
 <generator>
  <i name="program" type="string">vasp </i>
  <i name="version" type="string">5.3.5  </i>
  <i name="subversion" type="string">31Mar14 (build Dec 17 2014 13:12:56) complex                          serial </i>
  <i name="platform" type="string">LinuxIFC_ath </i>
  <i name="date" type="string">2015 06 29 </i>
  <i name="time" type="string">10:26:24 </i>
 </generator>
 <incar>
  <i type="string" name="SYSTEM"> O2 dimer in a box</i>
  <i type="string" name="PREC">normal</i>
  <i type="int" name="ISPIN">     2</i>
  <i type="int" name="IBRION">     2</i>
  <i type="int" name="NSW">     5</i>
  <i type="int" name="ISMEAR">     0</i>
 </incar>
 <kpoints>
  <varray name="kpointlist" >
   <v>       0.00000000       0.00000000       0.00000000 </v>
  </varray>
  <varray name="weights" >
   <v>       1.00000000 </v>
  </varray>
 </kpoints>
 <parameters>
  <separator name="general" >
   <i type="string" name="SYSTEM">O2 dimer in a box</i>
   <i type="logical" name="LCOMPAT"> F  </i>
  </separator>
  <separator name="electronic" >
   <i type="string" name="PREC">normal</i>
   <i name="ENMAX">    400.00000000</i>
   <i name="ENAUG">    605.39200000</i>
   <i name="EDIFF">      0.00010000</i>
   <i type="int" name="IALGO">    38</i>
   <i type="int" name="IWAVPR">    11</i>
   <i type="int" name="NBANDS">    11</i>
   <i name="NELECT">     12.00000000</i>
   <i type="int" name="TURBO">     0</i>
   <i type="int" name="IRESTART">     0</i>
   <i type="int" name="NREBOOT">     0</i>
   <i type="int" name="NMIN">     0</i>
   <i name="EREF">      0.00000000</i>
   <separator name="electronic smearing" >
    <i type="int" name="ISMEAR">     0</i>
    <i name="SIGMA">      0.20000000</i>
    <i name="KSPACING">      0.50000000</i>
    <i type="logical" name="KGAMMA"> T  </i>
   </separator>
   <separator name="electronic projectors" >
    <i type="logical" name="LREAL"> F  </i>
    <v name="ROPT">      0.00000000</v>
    <i type="int" name="LMAXPAW">  -100</i>
    <i type="int" name="LMAXMIX">     2</i>
    <i type="logical" name="NLSPLINE"> F  </i>
   </separator>
   <separator name="electronic startup" >
    <i type="int" name="ISTART">     1</i>
    <i type="int" name="ICHARG">     0</i>
    <i type="int" name="INIWAV">     1</i>
   </separator>
   <separator name="electronic spin" >
    <i type="int" name="ISPIN">     2</i>
    <i type="logical" name="LNONCOLLINEAR"> F  </i>
    <v name="MAGMOM">      1.00000000      1.00000000</v>
    <i name="NUPDOWN">     -1.00000000</i>
    <i type="logical" name="LSORBIT"> F  </i>
    <v name="SAXIS">      0.00000000      0.00000000      1.00000000</v>
    <i type="logical" name="LSPIRAL"> F  </i>
    <v name="QSPIRAL">      0.00000000      0.00000000      0.00000000</v>
    <i type="logical" name="LZEROZ"> F  </i>
   </separator>
   <separator name="electronic exchange-correlation" >
    <i type="logical" name="LASPH"> F  </i>
    <i type="logical" name="LMETAGGA"> F  </i>
   </separator>
   <separator name="electronic convergence" >
    <i type="int" name="NELM">    60</i>
    <i type="int" name="NELMDL">     0</i>
    <i type="int" name="NELMIN">     2</i>
    <i name="ENINI">    400.00000000</i>
    <separator name="electronic convergence detail" >
     <i type="logical" name="LDIAG"> T  </i>
     <i type="logical" name="LSUBROT"> F  </i>
     <i name="WEIMIN">      0.00100000</i>
     <i name="EBREAK">      0.00000227</i>
     <i name="DEPER">      0.30000000</i>
     <i type="int" name="NRMM">     4</i>
     <i name="TIME">      0.40000000</i>
    </separator>
   </separator>
   <separator name="electronic mixer" >
    <i name="AMIX">      0.40000000</i>
    <i name="BMIX">      1.00000000</i>
    <i name="AMIN">      0.10000000</i>
    <i name="AMIX_MAG">      1.60000000</i>
    <i name="BMIX_MAG">      1.00000000</i>
    <separator name="electronic mixer details" >
     <i type="int" name="IMIX">     4</i>
     <i type="int" name="MAXMIX">   -45</i>
     <i name="WC">    100.00000000</i>
     <i type="int" name="INIMIX">     1</i>
     <i type="int" name="MIXPRE">     1</i>
     <i type="int" name="MREMOVE">     5</i>
    </separator>
   </separator>
   <separator name="electronic dipolcorrection" >
    <i type="logical" name="LDIPOL"> F  </i>
    <i type="logical" name="LMONO"> F  </i>
    <i type="int" name="IDIPOL">     0</i>
    <i name="EPSILON">      1.00000000</i>
    <v name="DIPOL">   -100.00000000   -100.00000000   -100.00000000</v>
    <i name="EFIELD">      0.00000000</i>
   </separator>
  </separator>
  <separator name="grids" >
   <i type="int" name="NGX">    40</i>
   <i type="int" name="NGY">    40</i>
   <i type="int" name="NGZ">    40</i>
   <i type="int" name="NGXF">    80</i>
   <i type="int" name="NGYF">    80</i>
   <i type="int" name="NGZF">    80</i>
   <i type="logical" name="ADDGRID"> F  </i>
  </separator>
  <separator name="ionic" >
   <i type="int" name="NSW">     5</i>
   <i type="int" name="IBRION">     2</i>
   <i type="int" name="ISIF">     2</i>
   <i name="PSTRESS">      0.00000000</i>
   <i name="EDIFFG">      0.00100000</i>
   <i type="int" name="NFREE">     1</i>
   <i name="POTIM">      0.50000000</i>
   <i name="SMASS">     -3.00000000</i>
   <i name="SCALEE">      1.00000000</i>
  </separator>
  <separator name="ionic md" >
   <i name="TEBEG">      0.00010000</i>
   <i name="TEEND">      0.00010000</i>
   <i type="int" name="NBLOCK">     1</i>
   <i type="int" name="KBLOCK">     5</i>
   <i type="int" name="NPACO">   256</i>
   <i name="APACO">     16.00000000</i>
  </separator>
  <separator name="symmetry" >
   <i type="int" name="ISYM">     2</i>
   <i name="SYMPREC">      0.00001000</i>
  </separator>
  <separator name="dos" >
   <i type="logical" name="LORBIT"> F  </i>
   <v name="RWIGS">     -1.00000000</v>
   <i type="int" name="NEDOS">   301</i>
   <i name="EMIN">     10.00000000</i>
   <i name="EMAX">    -10.00000000</i>
   <i name="EFERMI">      0.00000000</i>
  </separator>
  <separator name="writing" >
   <i type="int" name="NWRITE">     2</i>
   <i type="logical" name="LWAVE"> T  </i>
   <i type="logical" name="LCHARG"> T  </i>
   <i type="logical" name="LPARD"> F  </i>
   <i type="logical" name="LVTOT"> F  </i>
   <i type="logical" name="LVHAR"> F  </i>
   <i type="logical" name="LELF"> F  </i>
   <i type="logical" name="LOPTICS"> F  </i>
   <v name="STM">      0.00000000      0.00000000      0.00000000      0.00000000      0.00000000      0.00000000      0.00000000</v>
  </separator>
  <separator name="performance" >
   <i type="int" name="NPAR">     1</i>
   <i type="int" name="NSIM">     4</i>
   <i type="int" name="NBLK">    -1</i>
   <i type="logical" name="LPLANE"> T  </i>
   <i type="logical" name="LSCALAPACK"> F  </i>
   <i type="logical" name="LSCAAWARE"> F  </i>
   <i type="logical" name="LSCALU"> F  </i>
   <i type="logical" name="LASYNC"> F  </i>
   <i type="logical" name="LORBITALREAL"> F  </i>
  </separator>
  <separator name="miscellaneous" >
   <i type="int" name="IDIOT">     3</i>
   <i type="logical" name="LMUSIC"> F  </i>
   <v name="POMASS">     16.00000000</v>
   <v name="DARWINR">      0.00000000</v>
   <v name="DARWINV">      1.00000000</v>
   <i type="logical" name="LCORR"> T  </i>
  </separator>
  <i type="logical" name="GGA_COMPAT"> T  </i>
  <i type="logical" name="LBERRY"> F  </i>
  <i type="int" name="ICORELEVEL">     0</i>
  <i type="logical" name="LDAU"> F  </i>
  <i type="int" name="I_CONSTRAINED_M">     0</i>
  <separator name="electronic exchange-correlation" >
   <i type="string" name="GGA">--</i>
   <i type="int" name="VOSKOWN">     0</i>
   <i type="logical" name="LHFCALC"> F  </i>
   <i type="string" name="PRECFOCK"></i>
   <i type="logical" name="LSYMGRAD"> F  </i>
   <i type="logical" name="LHFONE"> F  </i>
   <i type="logical" name="LRHFCALC"> F  </i>
   <i type="logical" name="LTHOMAS"> F  </i>
   <i type="logical" name="LMODELHF"> F  </i>
   <i name="ENCUT4O">     -1.00000000</i>
   <i type="int" name="EXXOEP">     0</i>
   <i type="int" name="FOURORBIT">     0</i>
   <i name="AEXX">      0.00000000</i>
   <i name="HFALPHA">      0.00000000</i>
   <i name="MCALPHA">      0.00000000</i>
   <i name="ALDAX">      1.00000000</i>
   <i name="AGGAX">      1.00000000</i>
   <i name="ALDAC">      1.00000000</i>
   <i name="AGGAC">      1.00000000</i>
   <i type="int" name="NKREDX">     1</i>
   <i type="int" name="NKREDY">     1</i>
   <i type="int" name="NKREDZ">     1</i>
   <i type="logical" name="SHIFTRED"> F  </i>
   <i type="logical" name="ODDONLY"> F  </i>
   <i type="logical" name="EVENONLY"> F  </i>
   <i type="int" name="LMAXFOCK">     0</i>
   <i type="int" name="NMAXFOCKAE">     0</i>
   <i type="logical" name="LFOCKAEDFT"> F  </i>
   <i name="HFSCREEN">      0.00000000</i>
   <i name="HFSCREENC">      0.00000000</i>
   <i type="int" name="NBANDSGWLOW">     0</i>
  </separator>
  <separator name="vdW DFT" >
   <i type="logical" name="LUSE_VDW"> F  </i>
   <i name="Zab_VDW">     -0.84910000</i>
   <i name="PARAM1">      0.12340000</i>
   <i name="PARAM2">      1.00000000</i>
   <i name="PARAM3">      0.00000000</i>
  </separator>
  <separator name="model GW" >
   <i type="int" name="MODEL_GW">     0</i>
   <i name="MODEL_EPS0">    153.60000000</i>
   <i name="MODEL_ALPHA">      1.00000000</i>
  </separator>
  <separator name="linear response parameters" >
   <i type="logical" name="LEPSILON"> F  </i>
   <i type="logical" name="LRPA"> F  </i>
   <i type="logical" name="LNABLA"> F  </i>
   <i type="logical" name="LVEL"> F  </i>
   <i type="int" name="KINTER">     0</i>
   <i name="CSHIFT">      0.10000000</i>
   <i name="OMEGAMAX">     -1.00000000</i>
   <i name="DEG_THRESHOLD">      0.00200000</i>
  </separator>
  <separator name="orbital magnetization" >
   <i type="logical" name="NUCIND"> F  </i>
   <v name="MAGPOS">      0.00000000      0.00000000      0.00000000</v>
   <i type="logical" name="LNICSALL"> T  </i>
   <i type="logical" name="ORBITALMAG"> F  </i>
   <i type="logical" name="LMAGBLOCH"> F  </i>
   <i type="logical" name="LCHIMAG"> F  </i>
   <i type="logical" name="LGAUGE"> T  </i>
   <i type="int" name="MAGATOM">     0</i>
   <v name="MAGDIPOL">      0.00000000      0.00000000      0.00000000</v>
   <v name="AVECCONST">      0.00000000      0.00000000      0.00000000</v>
  </separator>
  <separator name="response functions" >
   <i type="logical" name="LADDER"> F  </i>
   <i type="logical" name="LFXC"> F  </i>
   <i type="logical" name="LHARTREE"> T  </i>
   <i type="int" name="IBSE">     0</i>
   <i type="logical" name="LTCTE"> F  </i>
   <i type="logical" name="LTETE"> F  </i>
   <i type="logical" name="LTRIPLET"> F  </i>
   <i type="logical" name="LFXCEPS"> F  </i>
   <i type="logical" name="LFXHEG"> F  </i>
   <i type="logical" name="L2ORDER"> F  </i>
   <i type="logical" name="LUSEW"> F  </i>
   <i name="ENCUTGW">     -2.00000000</i>
   <i name="ENCUTGWSOFT">     -2.00000000</i>
   <i name="ENCUTLF">     -1.00000000</i>
   <i type="int" name="LMAXMP2">    -1</i>
   <i name="SCISSOR">      0.00000000</i>
   <i type="int" name="NOMEGA">     0</i>
   <i type="int" name="NOMEGAR">     0</i>
   <i type="int" name="NBANDSGW">    -1</i>
   <i type="int" name="NBANDSO">    -1</i>
   <i type="int" name="NBANDSV">    -1</i>
   <i type="int" name="NELM">     1</i>
   <i type="int" name="DIM">     3</i>
   <i type="int" name="ANTIRES">     0</i>
   <i name="OMEGAMAX">    -30.00000000</i>
   <i name="OMEGAMIN">    -30.00000000</i>
   <i name="OMEGATL">   -200.00000000</i>
   <i type="int" name="OMEGAGRID">     0</i>
   <i name="CSHIFT">     -0.10000000</i>
   <i type="logical" name="SELFENERGY"> F  </i>
   <i type="logical" name="LSPECTRAL"> F  </i>
   <i type="logical" name="ODDONLYGW"> F  </i>
   <i type="logical" name="EVENONLYGW"> F  </i>
   <i type="int" name="NKREDLFX">     1</i>
   <i type="int" name="NKREDLFY">     1</i>
   <i type="int" name="NKREDLFZ">     1</i>
   <i type="int" name="MAXMEM">  1800</i>
   <i type="int" name="TELESCOPE">     0</i>
   <i type="int" name="TAUPAR">     1</i>
  </separator>
  <separator name="External order field" >
   <i name="OFIELD_KAPPA">      0.00000000</i>
   <v name="OFIELD_K">      0.00000000      0.00000000      0.00000000</v>
   <i name="OFIELD_Q6_NEAR">      0.00000000</i>
   <i name="OFIELD_Q6_FAR">      0.00000000</i>
   <i name="OFIELD_A">      0.00000000</i>
  </separator>
 </parameters>
 <atominfo>
  <atoms>       2 </atoms>
  <types>       1 </types>
  <array name="atoms" >
   <dimension dim="1">ion</dimension>
   <field type="string">element</field>
   <field type="int">atomtype</field>
   <set>
    <rc><c>O </c><c>   1</c></rc>
    <rc><c>O </c><c>   1</c></rc>
   </set>
  </array>
  <array name="atomtypes" >
   <dimension dim="1">type</dimension>
   <field type="int">atomspertype</field>
   <field type="string">element</field>
   <field>mass</field>
   <field>valence</field>
   <field type="string">pseudopotential</field>
   <set>
    <rc><c>   2</c><c>O </c><c>     16.00000000</c><c>      6.00000000</c><c>  PAW_PBE O 08Apr2002                   </c></rc>
   </set>
  </array>
 </atominfo>
 <structure name="initialpos" >
  <crystal>
   <varray name="basis" >
    <v>       8.00000000       0.00000000       0.00000000 </v>
    <v>       0.00000000       8.00000000       0.00000000 </v>
    <v>       0.00000000       0.00000000       8.00000000 </v>
   </varray>
   <i name="volume">    512.00000000 </i>
   <varray name="rec_basis" >
    <v>       0.12500000       0.00000000       0.00000000 </v>
    <v>       0.00000000       0.12500000       0.00000000 </v>
    <v>       0.00000000       0.00000000       0.12500000 </v>
   </varray>
  </crystal>
  <varray name="positions" >
   <v>       0.00000000       0.00000000       0.99908055 </v>
   <v>       0.00000000       0.00000000       0.15341945 </v>
  </varray>
 </structure>
 <calculation>
  <scstep>
   <time name="dav">    0.67    0.68</time>
   <time name="total">    2.31    2.32</time>
   <energy>
    <i name="alphaZ">      1.08558169 </i>
    <i name="ewald">     55.48839224 </i>
    <i name="hartreedc">   -792.71122717 </i>
    <i name="XCdc">     55.32294412 </i>
    <i name="pawpsdc">    897.91153144 </i>
    <i name="pawaedc">   -901.41027654 </i>
    <i name="eentropy">      0.00000000 </i>
    <i name="bandstr">   -190.07445083 </i>
    <i name="atom">    864.52639207 </i>
    <i name="e_fr_energy">     -9.86111299 </i>
    <i name="e_wo_entrp">     -9.86111299 </i>
    <i name="e_0_energy">     -9.86111299 </i>
   </energy>
  </scstep>
  <scstep>
   <time name="dav">    0.42    0.42</time>
   <time name="total">    1.86    1.87</time>
   <energy>
    <i name="alphaZ">      1.08558169 </i>
    <i name="ewald">     55.48839224 </i>
    <i name="hartreedc">   -792.71090903 </i>
    <i name="XCdc">     55.32293004 </i>
    <i name="pawpsdc">    897.91143337 </i>
    <i name="pawaedc">   -901.41018322 </i>
    <i name="eentropy">      0.00000000 </i>
    <i name="bandstr">   -190.07475014 </i>
    <i name="atom">    864.52639207 </i>
    <i name="e_fr_energy">     -9.86111298 </i>
    <i name="e_wo_entrp">     -9.86111298 </i>
    <i name="e_0_energy">     -9.86111298 </i>
   </energy>
  </scstep>
  <structure>
   <crystal>
    <varray name="basis" >
     <v>       8.00000000       0.00000000       0.00000000 </v>
     <v>       0.00000000       8.00000000       0.00000000 </v>
     <v>       0.00000000       0.00000000       8.00000000 </v>
    </varray>
    <i name="volume">    512.00000000 </i>
    <varray name="rec_basis" >
     <v>       0.12500000       0.00000000       0.00000000 </v>
     <v>       0.00000000       0.12500000       0.00000000 </v>
     <v>       0.00000000       0.00000000       0.12500000 </v>
    </varray>
   </crystal>
   <varray name="positions" >
    <v>       0.00000000       0.00000000       0.99908055 </v>
    <v>       0.00000000       0.00000000       0.15341945 </v>
   </varray>
  </structure>
  <varray name="forces" >
   <v>       0.00000000       0.00000000       0.03203003 </v>
   <v>       0.00000000       0.00000000      -0.03203003 </v>
  </varray>
  <varray name="stress" >
   <v>      -4.90018869       0.00000000       0.00000000 </v>
   <v>       0.00000000      -4.90018869       0.00000000 </v>
   <v>       0.00000000       0.00000000      -3.78110958 </v>
  </varray>
  <energy>
   <i name="e_fr_energy">     -9.86111298 </i>
   <i name="e_wo_entrp">     -9.86111298 </i>
   <i name="e_0_energy">      0.00000000 </i>
  </energy>
  <time name="totalsc">    9.70    9.72</time>
  <eigenvalues>
   <array>
    <dimension dim="1">band</dimension>
    <dimension dim="2">kpoint</dimension>
    <dimension dim="3">spin</dimension>
    <field>eigene</field>
    <field>occ</field>
    <set>
     <set comment="spin 1">
      <set comment="kpoint 1">
       <r>  -32.3079    1.0000 </r>
       <r>  -20.4585    1.0000 </r>
       <r>  -13.2155    1.0000 </r>
       <r>  -13.0601    1.0000 </r>
       <r>  -13.0601    1.0000 </r>
       <r>   -6.7536    1.0000 </r>
       <r>   -6.7536    1.0000 </r>
       <r>   -0.3928    0.0000 </r>
       <r>    1.3412    0.0000 </r>
       <r>    1.7678    0.0000 </r>
       <r>    1.7678    0.0000 </r>
      </set>
     </set>
     <set comment="spin 2">
      <set comment="kpoint 1">
       <r>  -31.0817    1.0000 </r>
       <r>  -18.6618    1.0000 </r>
       <r>  -12.2885    1.0000 </r>
       <r>  -11.2167    1.0000 </r>
       <r>  -11.2167    1.0000 </r>
       <r>   -4.4797    0.0000 </r>
       <r>   -4.4797    0.0000 </r>
       <r>   -0.2555    0.0000 </r>
       <r>    1.7228    0.0000 </r>
       <r>    1.9420    0.0000 </r>
       <r>    1.9420    0.0000 </r>
      </set>
     </set>
    </set>
   </array>
  </eigenvalues>
  <separator name="orbital magnetization" >
   <v name="MAGDIPOLOUT">      0.00000000      0.00000000      0.00000000</v>
  </separator>
  <dos>
   <i name="efermi">     -5.74700215 </i>
   <total>
    <array>
     <dimension dim="1">gridpoints</dimension>
     <dimension dim="2">spin</dimension>
     <field>energy</field>
     <field>total</field>
     <field>integrated</field>
     <set>
      <set comment="spin 1">
       <r>   -34.3079     0.0000     0.0000 </r>
       <r>   -34.1804     0.0000     0.0000 </r>
       <r>   -34.0529     0.0000     0.0000 </r>
       <r>   -33.9254     0.0000     0.0000 </r>
       <r>   -33.7979     0.0000     0.0000 </r>
       <r>   -33.6704     0.0000     0.0000 </r>
       <r>   -33.5429     0.0000     0.0000 </r>
       <r>   -33.4154     0.0000     0.0000 </r>
       <r>   -33.2879     0.0000     0.0000 </r>
       <r>   -33.1604     0.0000     0.0000 </r>
       <r>   -33.0329     0.0000     0.0000 </r>
       <r>   -32.9054     0.0001     0.0000 </r>
       <r>   -32.7779     0.0034     0.0004 </r>
       <r>   -32.6504     0.0571     0.0077 </r>
       <r>   -32.5229     0.4431     0.0642 </r>
       <r>   -32.3954     1.5986     0.2680 </r>
       <r>   -32.2679     2.6925     0.6113 </r>
       <r>   -32.1404     2.1218     0.8819 </r>
       <r>   -32.0129     0.7815     0.9815 </r>
       <r>   -31.8854     0.1340     0.9986 </r>
       <r>   -31.7579     0.0106     0.9999 </r>
       <r>   -31.6304     0.0004     1.0000 </r>
       <r>   -31.5029     0.0000     1.0000 </r>
       <r>   -31.3754     0.0000     1.0000 </r>
       <r>   -31.2479     0.0000     1.0000 </r>
       <r>   -31.1204     0.0000     1.0000 </r>
       <r>   -30.9929     0.0000     1.0000 </r>
       <r>   -30.8654     0.0000     1.0000 </r>
       <r>   -30.7379     0.0000     1.0000 </r>
       <r>   -30.6104     0.0000     1.0000 </r>
       <r>   -30.4829     0.0000     1.0000 </r>
       <r>   -30.3554     0.0000     1.0000 </r>
       <r>   -30.2279     0.0000     1.0000 </r>
       <r>   -30.1004     0.0000     1.0000 </r>
       <r>   -29.9729     0.0000     1.0000 </r>
       <r>   -29.8454     0.0000     1.0000 </r>
       <r>   -29.7179     0.0000     1.0000 </r>
       <r>   -29.5904     0.0000     1.0000 </r>
       <r>   -29.4629     0.0000     1.0000 </r>
       <r>   -29.3354     0.0000     1.0000 </r>
       <r>   -29.2079     0.0000     1.0000 </r>
       <r>   -29.0804     0.0000     1.0000 </r>
       <r>   -28.9529     0.0000     1.0000 </r>
       <r>   -28.8254     0.0000     1.0000 </r>
       <r>   -28.6979     0.0000     1.0000 </r>
       <r>   -28.5704     0.0000     1.0000 </r>
       <r>   -28.4429     0.0000     1.0000 </r>
       <r>   -28.3154     0.0000     1.0000 </r>
       <r>   -28.1879     0.0000     1.0000 </r>
       <r>   -28.0604     0.0000     1.0000 </r>
       <r>   -27.9329     0.0000     1.0000 </r>
       <r>   -27.8054     0.0000     1.0000 </r>
       <r>   -27.6779     0.0000     1.0000 </r>
       <r>   -27.5504     0.0000     1.0000 </r>
       <r>   -27.4229     0.0000     1.0000 </r>
       <r>   -27.2954     0.0000     1.0000 </r>
       <r>   -27.1679     0.0000     1.0000 </r>
       <r>   -27.0404     0.0000     1.0000 </r>
       <r>   -26.9129     0.0000     1.0000 </r>
       <r>   -26.7854     0.0000     1.0000 </r>
       <r>   -26.6579     0.0000     1.0000 </r>
       <r>   -26.5304     0.0000     1.0000 </r>
       <r>   -26.4029     0.0000     1.0000 </r>
       <r>   -26.2754     0.0000     1.0000 </r>
       <r>   -26.1479     0.0000     1.0000 </r>
       <r>   -26.0204     0.0000     1.0000 </r>
       <r>   -25.8929     0.0000     1.0000 </r>
       <r>   -25.7654     0.0000     1.0000 </r>
       <r>   -25.6379     0.0000     1.0000 </r>
       <r>   -25.5104     0.0000     1.0000 </r>
       <r>   -25.3829     0.0000     1.0000 </r>
       <r>   -25.2554     0.0000     1.0000 </r>
       <r>   -25.1279     0.0000     1.0000 </r>
       <r>   -25.0004     0.0000     1.0000 </r>
       <r>   -24.8729     0.0000     1.0000 </r>
       <r>   -24.7454     0.0000     1.0000 </r>
       <r>   -24.6179     0.0000     1.0000 </r>
       <r>   -24.4904     0.0000     1.0000 </r>
       <r>   -24.3629     0.0000     1.0000 </r>
       <r>   -24.2354     0.0000     1.0000 </r>
       <r>   -24.1079     0.0000     1.0000 </r>
       <r>   -23.9804     0.0000     1.0000 </r>
       <r>   -23.8529     0.0000     1.0000 </r>
       <r>   -23.7254     0.0000     1.0000 </r>
       <r>   -23.5979     0.0000     1.0000 </r>
       <r>   -23.4705     0.0000     1.0000 </r>
       <r>   -23.3430     0.0000     1.0000 </r>
       <r>   -23.2155     0.0000     1.0000 </r>
       <r>   -23.0880     0.0000     1.0000 </r>
       <r>   -22.9605     0.0000     1.0000 </r>
       <r>   -22.8330     0.0000     1.0000 </r>
       <r>   -22.7055     0.0000     1.0000 </r>
       <r>   -22.5780     0.0000     1.0000 </r>
       <r>   -22.4505     0.0000     1.0000 </r>
       <r>   -22.3230     0.0000     1.0000 </r>
       <r>   -22.1955     0.0000     1.0000 </r>
       <r>   -22.0680     0.0000     1.0000 </r>
       <r>   -21.9405     0.0000     1.0000 </r>
       <r>   -21.8130     0.0000     1.0000 </r>
       <r>   -21.6855     0.0000     1.0000 </r>
       <r>   -21.5580     0.0000     1.0000 </r>
       <r>   -21.4305     0.0000     1.0000 </r>
       <r>   -21.3030     0.0000     1.0000 </r>
       <r>   -21.1755     0.0000     1.0000 </r>
       <r>   -21.0480     0.0001     1.0000 </r>
       <r>   -20.9205     0.0041     1.0005 </r>
       <r>   -20.7930     0.0664     1.0090 </r>
       <r>   -20.6655     0.4912     1.0716 </r>
       <r>   -20.5380     1.6892     1.2870 </r>
       <r>   -20.4105     2.7125     1.6328 </r>
       <r>   -20.2830     2.0380     1.8927 </r>
       <r>   -20.1555     0.7156     1.9839 </r>
       <r>   -20.0280     0.1169     1.9988 </r>
       <r>   -19.9005     0.0088     2.0000 </r>
       <r>   -19.7730     0.0003     2.0000 </r>
       <r>   -19.6455     0.0000     2.0000 </r>
       <r>   -19.5180     0.0000     2.0000 </r>
       <r>   -19.3905     0.0000     2.0000 </r>
       <r>   -19.2630     0.0000     2.0000 </r>
       <r>   -19.1355     0.0000     2.0000 </r>
       <r>   -19.0080     0.0000     2.0000 </r>
       <r>   -18.8805     0.0000     2.0000 </r>
       <r>   -18.7530     0.0000     2.0000 </r>
       <r>   -18.6255     0.0000     2.0000 </r>
       <r>   -18.4980     0.0000     2.0000 </r>
       <r>   -18.3705     0.0000     2.0000 </r>
       <r>   -18.2430     0.0000     2.0000 </r>
       <r>   -18.1155     0.0000     2.0000 </r>
       <r>   -17.9880     0.0000     2.0000 </r>
       <r>   -17.8605     0.0000     2.0000 </r>
       <r>   -17.7330     0.0000     2.0000 </r>
       <r>   -17.6055     0.0000     2.0000 </r>
       <r>   -17.4780     0.0000     2.0000 </r>
       <r>   -17.3505     0.0000     2.0000 </r>
       <r>   -17.2230     0.0000     2.0000 </r>
       <r>   -17.0955     0.0000     2.0000 </r>
       <r>   -16.9680     0.0000     2.0000 </r>
       <r>   -16.8405     0.0000     2.0000 </r>
       <r>   -16.7130     0.0000     2.0000 </r>
       <r>   -16.5855     0.0000     2.0000 </r>
       <r>   -16.4580     0.0000     2.0000 </r>
       <r>   -16.3305     0.0000     2.0000 </r>
       <r>   -16.2030     0.0000     2.0000 </r>
       <r>   -16.0755     0.0000     2.0000 </r>
       <r>   -15.9480     0.0000     2.0000 </r>
       <r>   -15.8205     0.0000     2.0000 </r>
       <r>   -15.6930     0.0000     2.0000 </r>
       <r>   -15.5655     0.0000     2.0000 </r>
       <r>   -15.4380     0.0000     2.0000 </r>
       <r>   -15.3105     0.0000     2.0000 </r>
       <r>   -15.1830     0.0000     2.0000 </r>
       <r>   -15.0555     0.0000     2.0000 </r>
       <r>   -14.9280     0.0000     2.0000 </r>
       <r>   -14.8005     0.0000     2.0000 </r>
       <r>   -14.6730     0.0000     2.0000 </r>
       <r>   -14.5455     0.0000     2.0000 </r>
       <r>   -14.4180     0.0000     2.0000 </r>
       <r>   -14.2905     0.0000     2.0000 </r>
       <r>   -14.1630     0.0000     2.0000 </r>
       <r>   -14.0355     0.0000     2.0000 </r>
       <r>   -13.9080     0.0000     2.0000 </r>
       <r>   -13.7805     0.0003     2.0000 </r>
       <r>   -13.6530     0.0077     2.0010 </r>
       <r>   -13.5255     0.1111     2.0152 </r>
       <r>   -13.3980     0.7854     2.1153 </r>
       <r>   -13.2705     2.9039     2.4856 </r>
       <r>   -13.1430     6.0264     3.2539 </r>
       <r>   -13.0155     7.1787     4.1692 </r>
       <r>   -12.8880     4.6827     4.7663 </r>
       <r>   -12.7605     1.5607     4.9653 </r>
       <r>   -12.6330     0.2525     4.9975 </r>
       <r>   -12.5055     0.0192     4.9999 </r>
       <r>   -12.3780     0.0007     5.0000 </r>
       <r>   -12.2505     0.0000     5.0000 </r>
       <r>   -12.1230     0.0000     5.0000 </r>
       <r>   -11.9955     0.0000     5.0000 </r>
       <r>   -11.8680     0.0000     5.0000 </r>
       <r>   -11.7405     0.0000     5.0000 </r>
       <r>   -11.6130     0.0000     5.0000 </r>
       <r>   -11.4855     0.0000     5.0000 </r>
       <r>   -11.3580     0.0000     5.0000 </r>
       <r>   -11.2305     0.0000     5.0000 </r>
       <r>   -11.1030     0.0000     5.0000 </r>
       <r>   -10.9755     0.0000     5.0000 </r>
       <r>   -10.8480     0.0000     5.0000 </r>
       <r>   -10.7205     0.0000     5.0000 </r>
       <r>   -10.5930     0.0000     5.0000 </r>
       <r>   -10.4655     0.0000     5.0000 </r>
       <r>   -10.3380     0.0000     5.0000 </r>
       <r>   -10.2105     0.0000     5.0000 </r>
       <r>   -10.0830     0.0000     5.0000 </r>
       <r>    -9.9555     0.0000     5.0000 </r>
       <r>    -9.8280     0.0000     5.0000 </r>
       <r>    -9.7005     0.0000     5.0000 </r>
       <r>    -9.5730     0.0000     5.0000 </r>
       <r>    -9.4455     0.0000     5.0000 </r>
       <r>    -9.3180     0.0000     5.0000 </r>
       <r>    -9.1905     0.0000     5.0000 </r>
       <r>    -9.0630     0.0000     5.0000 </r>
       <r>    -8.9355     0.0000     5.0000 </r>
       <r>    -8.8080     0.0000     5.0000 </r>
       <r>    -8.6805     0.0000     5.0000 </r>
       <r>    -8.5530     0.0000     5.0000 </r>
       <r>    -8.4255     0.0000     5.0000 </r>
       <r>    -8.2980     0.0000     5.0000 </r>
       <r>    -8.1705     0.0000     5.0000 </r>
       <r>    -8.0430     0.0000     5.0000 </r>
       <r>    -7.9155     0.0000     5.0000 </r>
       <r>    -7.7880     0.0000     5.0000 </r>
       <r>    -7.6605     0.0000     5.0000 </r>
       <r>    -7.5330     0.0000     5.0000 </r>
       <r>    -7.4055     0.0000     5.0000 </r>
       <r>    -7.2780     0.0016     5.0002 </r>
       <r>    -7.1505     0.0376     5.0050 </r>
       <r>    -7.0230     0.4059     5.0568 </r>
       <r>    -6.8955     2.0300     5.3156 </r>
       <r>    -6.7680     4.7307     5.9187 </r>
       <r>    -6.6405     5.1552     6.5760 </r>
       <r>    -6.5130     2.6279     6.9111 </r>
       <r>    -6.3855     0.6249     6.9907 </r>
       <r>    -6.2580     0.0690     6.9995 </r>
       <r>    -6.1305     0.0035     7.0000 </r>
       <r>    -6.0030     0.0001     7.0000 </r>
       <r>    -5.8755     0.0000     7.0000 </r>
       <r>    -5.7480     0.0000     7.0000 </r>
       <r>    -5.6205     0.0000     7.0000 </r>
       <r>    -5.4930     0.0000     7.0000 </r>
       <r>    -5.3655     0.0000     7.0000 </r>
       <r>    -5.2380     0.0000     7.0000 </r>
       <r>    -5.1105     0.0000     7.0000 </r>
       <r>    -4.9830     0.0000     7.0000 </r>
       <r>    -4.8555     0.0000     7.0000 </r>
       <r>    -4.7280     0.0000     7.0000 </r>
       <r>    -4.6005     0.0000     7.0000 </r>
       <r>    -4.4730     0.0000     7.0000 </r>
       <r>    -4.3455     0.0000     7.0000 </r>
       <r>    -4.2180     0.0000     7.0000 </r>
       <r>    -4.0905     0.0000     7.0000 </r>
       <r>    -3.9630     0.0000     7.0000 </r>
       <r>    -3.8355     0.0000     7.0000 </r>
       <r>    -3.7080     0.0000     7.0000 </r>
       <r>    -3.5805     0.0000     7.0000 </r>
       <r>    -3.4530     0.0000     7.0000 </r>
       <r>    -3.3255     0.0000     7.0000 </r>
       <r>    -3.1980     0.0000     7.0000 </r>
       <r>    -3.0705     0.0000     7.0000 </r>
       <r>    -2.9430     0.0000     7.0000 </r>
       <r>    -2.8155     0.0000     7.0000 </r>
       <r>    -2.6880     0.0000     7.0000 </r>
       <r>    -2.5605     0.0000     7.0000 </r>
       <r>    -2.4330     0.0000     7.0000 </r>
       <r>    -2.3055     0.0000     7.0000 </r>
       <r>    -2.1780     0.0000     7.0000 </r>
       <r>    -2.0505     0.0000     7.0000 </r>
       <r>    -1.9230     0.0000     7.0000 </r>
       <r>    -1.7955     0.0000     7.0000 </r>
       <r>    -1.6680     0.0000     7.0000 </r>
       <r>    -1.5405     0.0000     7.0000 </r>
       <r>    -1.4130     0.0000     7.0000 </r>
       <r>    -1.2855     0.0000     7.0000 </r>
       <r>    -1.1580     0.0000     7.0000 </r>
       <r>    -1.0305     0.0000     7.0000 </r>
       <r>    -0.9030     0.0012     7.0002 </r>
       <r>    -0.7755     0.0255     7.0034 </r>
       <r>    -0.6480     0.2523     7.0356 </r>
       <r>    -0.5205     1.1584     7.1833 </r>
       <r>    -0.3930     2.4797     7.4994 </r>
       <r>    -0.2655     2.4827     7.8160 </r>
       <r>    -0.1380     1.1626     7.9642 </r>
       <r>    -0.0105     0.2538     7.9966 </r>
       <r>     0.1170     0.0257     7.9998 </r>
       <r>     0.2445     0.0012     8.0000 </r>
       <r>     0.3720     0.0000     8.0000 </r>
       <r>     0.4995     0.0000     8.0000 </r>
       <r>     0.6270     0.0000     8.0000 </r>
       <r>     0.7545     0.0001     8.0000 </r>
       <r>     0.8820     0.0044     8.0006 </r>
       <r>     1.0095     0.0699     8.0095 </r>
       <r>     1.1370     0.5087     8.0743 </r>
       <r>     1.2645     1.7232     8.2941 </r>
       <r>     1.3920     2.7763     8.6480 </r>
       <r>     1.5195     2.5669     8.9753 </r>
       <r>     1.6470     3.1541     9.3775 </r>
       <r>     1.7745     5.1678    10.0363 </r>
       <r>     1.9020     4.8686    10.6571 </r>
       <r>     2.0295     2.1851    10.9357 </r>
       <r>     2.1570     0.4578    10.9941 </r>
       <r>     2.2845     0.0445    10.9997 </r>
       <r>     2.4120     0.0020    11.0000 </r>
       <r>     2.5395     0.0000    11.0000 </r>
       <r>     2.6670     0.0000    11.0000 </r>
       <r>     2.7945     0.0000    11.0000 </r>
       <r>     2.9220     0.0000    11.0000 </r>
       <r>     3.0495     0.0000    11.0000 </r>
       <r>     3.1770     0.0000    11.0000 </r>
       <r>     3.3045     0.0000    11.0000 </r>
       <r>     3.4320     0.0000    11.0000 </r>
       <r>     3.5595     0.0000    11.0000 </r>
       <r>     3.6870     0.0000    11.0000 </r>
       <r>     3.8145     0.0000    11.0000 </r>
       <r>     3.9420     0.0000    11.0000 </r>
      </set>
      <set comment="spin 2">
       <r>   -34.3079     0.0000     0.0000 </r>
       <r>   -34.1804     0.0000     0.0000 </r>
       <r>   -34.0529     0.0000     0.0000 </r>
       <r>   -33.9254     0.0000     0.0000 </r>
       <r>   -33.7979     0.0000     0.0000 </r>
       <r>   -33.6704     0.0000     0.0000 </r>
       <r>   -33.5429     0.0000     0.0000 </r>
       <r>   -33.4154     0.0000     0.0000 </r>
       <r>   -33.2879     0.0000     0.0000 </r>
       <r>   -33.1604     0.0000     0.0000 </r>
       <r>   -33.0329     0.0000     0.0000 </r>
       <r>   -32.9054     0.0000     0.0000 </r>
       <r>   -32.7779     0.0000     0.0000 </r>
       <r>   -32.6504     0.0000     0.0000 </r>
       <r>   -32.5229     0.0000     0.0000 </r>
       <r>   -32.3954     0.0000     0.0000 </r>
       <r>   -32.2679     0.0000     0.0000 </r>
       <r>   -32.1404     0.0000     0.0000 </r>
       <r>   -32.0129     0.0000     0.0000 </r>
       <r>   -31.8854     0.0000     0.0000 </r>
       <r>   -31.7579     0.0000     0.0000 </r>
       <r>   -31.6304     0.0004     0.0001 </r>
       <r>   -31.5029     0.0110     0.0014 </r>
       <r>   -31.3754     0.1370     0.0189 </r>
       <r>   -31.2479     0.7926     0.1200 </r>
       <r>   -31.1204     2.1352     0.3922 </r>
       <r>   -30.9929     2.6885     0.7350 </r>
       <r>   -30.8654     1.5838     0.9369 </r>
       <r>   -30.7379     0.4356     0.9925 </r>
       <r>   -30.6104     0.0557     0.9996 </r>
       <r>   -30.4829     0.0033     1.0000 </r>
       <r>   -30.3554     0.0001     1.0000 </r>
       <r>   -30.2279     0.0000     1.0000 </r>
       <r>   -30.1004     0.0000     1.0000 </r>
       <r>   -29.9729     0.0000     1.0000 </r>
       <r>   -29.8454     0.0000     1.0000 </r>
       <r>   -29.7179     0.0000     1.0000 </r>
       <r>   -29.5904     0.0000     1.0000 </r>
       <r>   -29.4629     0.0000     1.0000 </r>
       <r>   -29.3354     0.0000     1.0000 </r>
       <r>   -29.2079     0.0000     1.0000 </r>
       <r>   -29.0804     0.0000     1.0000 </r>
       <r>   -28.9529     0.0000     1.0000 </r>
       <r>   -28.8254     0.0000     1.0000 </r>
       <r>   -28.6979     0.0000     1.0000 </r>
       <r>   -28.5704     0.0000     1.0000 </r>
       <r>   -28.4429     0.0000     1.0000 </r>
       <r>   -28.3154     0.0000     1.0000 </r>
       <r>   -28.1879     0.0000     1.0000 </r>
       <r>   -28.0604     0.0000     1.0000 </r>
       <r>   -27.9329     0.0000     1.0000 </r>
       <r>   -27.8054     0.0000     1.0000 </r>
       <r>   -27.6779     0.0000     1.0000 </r>
       <r>   -27.5504     0.0000     1.0000 </r>
       <r>   -27.4229     0.0000     1.0000 </r>
       <r>   -27.2954     0.0000     1.0000 </r>
       <r>   -27.1679     0.0000     1.0000 </r>
       <r>   -27.0404     0.0000     1.0000 </r>
       <r>   -26.9129     0.0000     1.0000 </r>
       <r>   -26.7854     0.0000     1.0000 </r>
       <r>   -26.6579     0.0000     1.0000 </r>
       <r>   -26.5304     0.0000     1.0000 </r>
       <r>   -26.4029     0.0000     1.0000 </r>
       <r>   -26.2754     0.0000     1.0000 </r>
       <r>   -26.1479     0.0000     1.0000 </r>
       <r>   -26.0204     0.0000     1.0000 </r>
       <r>   -25.8929     0.0000     1.0000 </r>
       <r>   -25.7654     0.0000     1.0000 </r>
       <r>   -25.6379     0.0000     1.0000 </r>
       <r>   -25.5104     0.0000     1.0000 </r>
       <r>   -25.3829     0.0000     1.0000 </r>
       <r>   -25.2554     0.0000     1.0000 </r>
       <r>   -25.1279     0.0000     1.0000 </r>
       <r>   -25.0004     0.0000     1.0000 </r>
       <r>   -24.8729     0.0000     1.0000 </r>
       <r>   -24.7454     0.0000     1.0000 </r>
       <r>   -24.6179     0.0000     1.0000 </r>
       <r>   -24.4904     0.0000     1.0000 </r>
       <r>   -24.3629     0.0000     1.0000 </r>
       <r>   -24.2354     0.0000     1.0000 </r>
       <r>   -24.1079     0.0000     1.0000 </r>
       <r>   -23.9804     0.0000     1.0000 </r>
       <r>   -23.8529     0.0000     1.0000 </r>
       <r>   -23.7254     0.0000     1.0000 </r>
       <r>   -23.5979     0.0000     1.0000 </r>
       <r>   -23.4705     0.0000     1.0000 </r>
       <r>   -23.3430     0.0000     1.0000 </r>
       <r>   -23.2155     0.0000     1.0000 </r>
       <r>   -23.0880     0.0000     1.0000 </r>
       <r>   -22.9605     0.0000     1.0000 </r>
       <r>   -22.8330     0.0000     1.0000 </r>
       <r>   -22.7055     0.0000     1.0000 </r>
       <r>   -22.5780     0.0000     1.0000 </r>
       <r>   -22.4505     0.0000     1.0000 </r>
       <r>   -22.3230     0.0000     1.0000 </r>
       <r>   -22.1955     0.0000     1.0000 </r>
       <r>   -22.0680     0.0000     1.0000 </r>
       <r>   -21.9405     0.0000     1.0000 </r>
       <r>   -21.8130     0.0000     1.0000 </r>
       <r>   -21.6855     0.0000     1.0000 </r>
       <r>   -21.5580     0.0000     1.0000 </r>
       <r>   -21.4305     0.0000     1.0000 </r>
       <r>   -21.3030     0.0000     1.0000 </r>
       <r>   -21.1755     0.0000     1.0000 </r>
       <r>   -21.0480     0.0000     1.0000 </r>
       <r>   -20.9205     0.0000     1.0000 </r>
       <r>   -20.7930     0.0000     1.0000 </r>
       <r>   -20.6655     0.0000     1.0000 </r>
       <r>   -20.5380     0.0000     1.0000 </r>
       <r>   -20.4105     0.0000     1.0000 </r>
       <r>   -20.2830     0.0000     1.0000 </r>
       <r>   -20.1555     0.0000     1.0000 </r>
       <r>   -20.0280     0.0000     1.0000 </r>
       <r>   -19.9005     0.0000     1.0000 </r>
       <r>   -19.7730     0.0000     1.0000 </r>
       <r>   -19.6455     0.0000     1.0000 </r>
       <r>   -19.5180     0.0000     1.0000 </r>
       <r>   -19.3905     0.0000     1.0000 </r>
       <r>   -19.2630     0.0001     1.0000 </r>
       <r>   -19.1355     0.0031     1.0004 </r>
       <r>   -19.0080     0.0532     1.0072 </r>
       <r>   -18.8805     0.4221     1.0610 </r>
       <r>   -18.7530     1.5570     1.2595 </r>
       <r>   -18.6255     2.6807     1.6013 </r>
       <r>   -18.4980     2.1594     1.8766 </r>
       <r>   -18.3705     0.8131     1.9803 </r>
       <r>   -18.2430     0.1426     1.9985 </r>
       <r>   -18.1155     0.0116     1.9999 </r>
       <r>   -17.9880     0.0004     2.0000 </r>
       <r>   -17.8605     0.0000     2.0000 </r>
       <r>   -17.7330     0.0000     2.0000 </r>
       <r>   -17.6055     0.0000     2.0000 </r>
       <r>   -17.4780     0.0000     2.0000 </r>
       <r>   -17.3505     0.0000     2.0000 </r>
       <r>   -17.2230     0.0000     2.0000 </r>
       <r>   -17.0955     0.0000     2.0000 </r>
       <r>   -16.9680     0.0000     2.0000 </r>
       <r>   -16.8405     0.0000     2.0000 </r>
       <r>   -16.7130     0.0000     2.0000 </r>
       <r>   -16.5855     0.0000     2.0000 </r>
       <r>   -16.4580     0.0000     2.0000 </r>
       <r>   -16.3305     0.0000     2.0000 </r>
       <r>   -16.2030     0.0000     2.0000 </r>
       <r>   -16.0755     0.0000     2.0000 </r>
       <r>   -15.9480     0.0000     2.0000 </r>
       <r>   -15.8205     0.0000     2.0000 </r>
       <r>   -15.6930     0.0000     2.0000 </r>
       <r>   -15.5655     0.0000     2.0000 </r>
       <r>   -15.4380     0.0000     2.0000 </r>
       <r>   -15.3105     0.0000     2.0000 </r>
       <r>   -15.1830     0.0000     2.0000 </r>
       <r>   -15.0555     0.0000     2.0000 </r>
       <r>   -14.9280     0.0000     2.0000 </r>
       <r>   -14.8005     0.0000     2.0000 </r>
       <r>   -14.6730     0.0000     2.0000 </r>
       <r>   -14.5455     0.0000     2.0000 </r>
       <r>   -14.4180     0.0000     2.0000 </r>
       <r>   -14.2905     0.0000     2.0000 </r>
       <r>   -14.1630     0.0000     2.0000 </r>
       <r>   -14.0355     0.0000     2.0000 </r>
       <r>   -13.9080     0.0000     2.0000 </r>
       <r>   -13.7805     0.0000     2.0000 </r>
       <r>   -13.6530     0.0000     2.0000 </r>
       <r>   -13.5255     0.0000     2.0000 </r>
       <r>   -13.3980     0.0000     2.0000 </r>
       <r>   -13.2705     0.0000     2.0000 </r>
       <r>   -13.1430     0.0000     2.0000 </r>
       <r>   -13.0155     0.0000     2.0000 </r>
       <r>   -12.8880     0.0001     2.0000 </r>
       <r>   -12.7605     0.0032     2.0004 </r>
       <r>   -12.6330     0.0550     2.0074 </r>
       <r>   -12.5055     0.4320     2.0625 </r>
       <r>   -12.3780     1.5768     2.2636 </r>
       <r>   -12.2505     2.6865     2.6061 </r>
       <r>   -12.1230     2.1416     2.8791 </r>
       <r>   -11.9955     0.7979     2.9809 </r>
       <r>   -11.8680     0.1385     2.9985 </r>
       <r>   -11.7405     0.0128     3.0002 </r>
       <r>   -11.6130     0.0386     3.0051 </r>
       <r>   -11.4855     0.4101     3.0574 </r>
       <r>   -11.3580     2.0428     3.3178 </r>
       <r>   -11.2305     4.7420     3.9224 </r>
       <r>   -11.1030     5.1473     4.5787 </r>
       <r>   -10.9755     2.6136     4.9119 </r>
       <r>   -10.8480     0.6191     4.9909 </r>
       <r>   -10.7205     0.0680     4.9995 </r>
       <r>   -10.5930     0.0034     5.0000 </r>
       <r>   -10.4655     0.0001     5.0000 </r>
       <r>   -10.3380     0.0000     5.0000 </r>
       <r>   -10.2105     0.0000     5.0000 </r>
       <r>   -10.0830     0.0000     5.0000 </r>
       <r>    -9.9555     0.0000     5.0000 </r>
       <r>    -9.8280     0.0000     5.0000 </r>
       <r>    -9.7005     0.0000     5.0000 </r>
       <r>    -9.5730     0.0000     5.0000 </r>
       <r>    -9.4455     0.0000     5.0000 </r>
       <r>    -9.3180     0.0000     5.0000 </r>
       <r>    -9.1905     0.0000     5.0000 </r>
       <r>    -9.0630     0.0000     5.0000 </r>
       <r>    -8.9355     0.0000     5.0000 </r>
       <r>    -8.8080     0.0000     5.0000 </r>
       <r>    -8.6805     0.0000     5.0000 </r>
       <r>    -8.5530     0.0000     5.0000 </r>
       <r>    -8.4255     0.0000     5.0000 </r>
       <r>    -8.2980     0.0000     5.0000 </r>
       <r>    -8.1705     0.0000     5.0000 </r>
       <r>    -8.0430     0.0000     5.0000 </r>
       <r>    -7.9155     0.0000     5.0000 </r>
       <r>    -7.7880     0.0000     5.0000 </r>
       <r>    -7.6605     0.0000     5.0000 </r>
       <r>    -7.5330     0.0000     5.0000 </r>
       <r>    -7.4055     0.0000     5.0000 </r>
       <r>    -7.2780     0.0000     5.0000 </r>
       <r>    -7.1505     0.0000     5.0000 </r>
       <r>    -7.0230     0.0000     5.0000 </r>
       <r>    -6.8955     0.0000     5.0000 </r>
       <r>    -6.7680     0.0000     5.0000 </r>
       <r>    -6.6405     0.0000     5.0000 </r>
       <r>    -6.5130     0.0000     5.0000 </r>
       <r>    -6.3855     0.0000     5.0000 </r>
       <r>    -6.2580     0.0000     5.0000 </r>
       <r>    -6.1305     0.0000     5.0000 </r>
       <r>    -6.0030     0.0000     5.0000 </r>
       <r>    -5.8755     0.0000     5.0000 </r>
       <r>    -5.7480     0.0000     5.0000 </r>
       <r>    -5.6205     0.0000     5.0000 </r>
       <r>    -5.4930     0.0000     5.0000 </r>
       <r>    -5.3655     0.0000     5.0000 </r>
       <r>    -5.2380     0.0000     5.0000 </r>
       <r>    -5.1105     0.0001     5.0000 </r>
       <r>    -4.9830     0.0029     5.0004 </r>
       <r>    -4.8555     0.0589     5.0079 </r>
       <r>    -4.7280     0.5592     5.0792 </r>
       <r>    -4.6005     2.4627     5.3932 </r>
       <r>    -4.4730     5.0577     6.0380 </r>
       <r>    -4.3455     4.8586     6.6575 </r>
       <r>    -4.2180     2.1827     6.9358 </r>
       <r>    -4.0905     0.4571     6.9941 </r>
       <r>    -3.9630     0.0444     6.9997 </r>
       <r>    -3.8355     0.0020     7.0000 </r>
       <r>    -3.7080     0.0000     7.0000 </r>
       <r>    -3.5805     0.0000     7.0000 </r>
       <r>    -3.4530     0.0000     7.0000 </r>
       <r>    -3.3255     0.0000     7.0000 </r>
       <r>    -3.1980     0.0000     7.0000 </r>
       <r>    -3.0705     0.0000     7.0000 </r>
       <r>    -2.9430     0.0000     7.0000 </r>
       <r>    -2.8155     0.0000     7.0000 </r>
       <r>    -2.6880     0.0000     7.0000 </r>
       <r>    -2.5605     0.0000     7.0000 </r>
       <r>    -2.4330     0.0000     7.0000 </r>
       <r>    -2.3055     0.0000     7.0000 </r>
       <r>    -2.1780     0.0000     7.0000 </r>
       <r>    -2.0505     0.0000     7.0000 </r>
       <r>    -1.9230     0.0000     7.0000 </r>
       <r>    -1.7955     0.0000     7.0000 </r>
       <r>    -1.6680     0.0000     7.0000 </r>
       <r>    -1.5405     0.0000     7.0000 </r>
       <r>    -1.4130     0.0000     7.0000 </r>
       <r>    -1.2855     0.0000     7.0000 </r>
       <r>    -1.1580     0.0000     7.0000 </r>
       <r>    -1.0305     0.0000     7.0000 </r>
       <r>    -0.9030     0.0000     7.0000 </r>
       <r>    -0.7755     0.0009     7.0001 </r>
       <r>    -0.6480     0.0207     7.0028 </r>
       <r>    -0.5205     0.2175     7.0305 </r>
       <r>    -0.3930     1.0590     7.1655 </r>
       <r>    -0.2655     2.4030     7.4719 </r>
       <r>    -0.1380     2.5501     7.7970 </r>
       <r>    -0.0105     1.2658     7.9584 </r>
       <r>     0.1170     0.2931     7.9958 </r>
       <r>     0.2445     0.0315     7.9998 </r>
       <r>     0.3720     0.0016     8.0000 </r>
       <r>     0.4995     0.0000     8.0000 </r>
       <r>     0.6270     0.0000     8.0000 </r>
       <r>     0.7545     0.0000     8.0000 </r>
       <r>     0.8820     0.0000     8.0000 </r>
       <r>     1.0095     0.0000     8.0000 </r>
       <r>     1.1370     0.0001     8.0000 </r>
       <r>     1.2645     0.0046     8.0006 </r>
       <r>     1.3920     0.0719     8.0098 </r>
       <r>     1.5195     0.5361     8.0781 </r>
       <r>     1.6470     1.9993     8.3330 </r>
       <r>     1.7745     4.2821     8.8790 </r>
       <r>     1.9020     6.2417     9.6748 </r>
       <r>     2.0295     6.0712    10.4489 </r>
       <r>     2.1570     3.3069    10.8705 </r>
       <r>     2.2845     0.8943    10.9845 </r>
       <r>     2.4120     0.1144    10.9991 </r>
       <r>     2.5395     0.0068    11.0000 </r>
       <r>     2.6670     0.0002    11.0000 </r>
       <r>     2.7945     0.0000    11.0000 </r>
       <r>     2.9220     0.0000    11.0000 </r>
       <r>     3.0495     0.0000    11.0000 </r>
       <r>     3.1770     0.0000    11.0000 </r>
       <r>     3.3045     0.0000    11.0000 </r>
       <r>     3.4320     0.0000    11.0000 </r>
       <r>     3.5595     0.0000    11.0000 </r>
       <r>     3.6870     0.0000    11.0000 </r>
       <r>     3.8145     0.0000    11.0000 </r>
       <r>     3.9420     0.0000    11.0000 </r>
      </set>
     </set>
    </array>
   </total>
  </dos>
 </calculation>
 <structure name="finalpos" >
  <crystal>
   <varray name="basis" >
    <v>       8.00000000       0.00000000       0.00000000 </v>
    <v>       0.00000000       8.00000000       0.00000000 </v>
    <v>       0.00000000       0.00000000       8.00000000 </v>
   </varray>
   <i name="volume">    512.00000000 </i>
   <varray name="rec_basis" >
    <v>       0.12500000       0.00000000       0.00000000 </v>
    <v>       0.00000000       0.12500000       0.00000000 </v>
    <v>       0.00000000       0.00000000       0.12500000 </v>
   </varray>
  </crystal>
  <varray name="positions" >
   <v>       0.00000000       0.00000000       0.99908055 </v>
   <v>       0.00000000       0.00000000       0.15341945 </v>
  </varray>
 </structure>
</modeling>
