O2 dimer in a box                       
           1
     8.000000    0.000000    0.000000
     0.000000    8.000000    0.000000
     0.000000    0.000000    8.000000
   O 
   2
Direct configuration=     1
   0.00000000  0.00000000  0.99908055
   0.00000000  0.00000000  0.15341945
